28
387_C13H12O2S_6-11-12-23 (-165,) energy =   -1051.1855427
C          -1.3732362    -1.4545468    -2.4061800
H          -2.0334466    -1.2913193    -3.2535690
C          -1.1607856    -2.7506872    -1.9306626
H          -1.6492369    -3.5944829    -2.4096854
C          -0.3117305    -2.9662089    -0.8444993
H          -0.1140456    -3.9672222    -0.4748292
C           0.3129320    -1.8701372    -0.2464642
C           0.1175887    -0.5704050    -0.7179601
H           0.6433609     0.2563107    -0.2514611
C          -0.7334693    -0.3676843    -1.8045150
H          -0.8901982     0.6370270    -2.1866928
S           1.3993304    -2.1394094     1.1677582
C           0.2480621    -2.0183007     2.6112006
H          -0.3537419    -2.9305329     2.5791605
H          -0.3936548    -1.1575797     2.4009633
O           1.8984234    -3.5241113     1.1072819
O           2.3234165    -0.9953823     1.2324604
C           2.4343424    -1.5540561     6.2917649
H           2.9862699    -1.4374226     7.2205128
C           1.9744438    -0.4288928     5.6049646
H           2.1698986     0.5662534     5.9948956
C           1.2651031    -0.5782225     4.4140766
H           0.9163104     0.2997869     3.8769968
C           1.0006238    -1.8541331     3.9008257
C           1.4731307    -2.9786173     4.5913314
H           1.2870302    -3.9707982     4.1890767
C           2.1842508    -2.8292602     5.7812213
H           2.5433988    -3.7086108     6.3087457
28
387_C13H12O2S_6-11-12-23 (-150,) energy =   -1051.1837732
C          -1.3392809    -1.2261003    -2.3304361
H          -1.9867013    -0.9387146    -3.1543512
C          -1.2448568    -2.5684763    -1.9562604
H          -1.8123592    -3.3251743    -2.4905030
C          -0.4125858    -2.9427258    -0.9004395
H          -0.3072587    -3.9830158    -0.6097786
C           0.3146004    -1.9575249    -0.2301395
C           0.2381182    -0.6134148    -0.6004822
H           0.8412957     0.1235861    -0.0804534
C          -0.5973257    -0.2517441    -1.6574578
H          -0.6620816     0.7891741    -1.9614426
S           1.3808917    -2.4320499     1.1460141
C           0.2519372    -2.3280478     2.6210225
H          -0.2357874    -3.3047496     2.6706083
H          -0.4929324    -1.5685003     2.3662003
O           1.7572378    -3.8463195     0.9747254
O           2.4024906    -1.3807754     1.2768321
C           2.4023818    -1.3166691     6.2117226
H           2.9439927    -1.0624956     7.1188080
C           1.7979115    -0.3128319     5.4526648
H           1.8695441     0.7252853     5.7653511
C           1.1019015    -0.6389030     4.2896166
H           0.6373166     0.1461406     3.6984050
C           0.9953852    -1.9722997     3.8756708
C           1.6095934    -2.9735927     4.6402893
H           1.5410375    -4.0097187     4.3187696
C           2.3083702    -2.6480121     5.8019534
H           2.7784225    -3.4338100     6.3868411
28
387_C13H12O2S_6-11-12-23 (-135,) energy =   -1051.1819961
C          -1.2888424    -0.9984067    -2.1766107
H          -1.9186037    -0.5930947    -2.9638316
C          -1.3242568    -2.3658131    -1.8933520
H          -1.9749253    -3.0240606    -2.4620532
C          -0.5156506    -2.8922767    -0.8852100
H          -0.5106968    -3.9548925    -0.6648910
C           0.3193733    -2.0319637    -0.1702992
C           0.3732521    -0.6651050    -0.4498134
H           1.0574841    -0.0292023     0.1023661
C          -0.4399580    -0.1508153    -1.4601026
H          -0.4041557     0.9095291    -1.6936793
S           1.3571043    -2.7026318     1.1455115
C           0.2644931    -2.6127334     2.6626970
H          -0.0825567    -3.6398591     2.7977505
H          -0.5839063    -1.9829309     2.3807970
O           1.5842699    -4.1314689     0.8634991
O           2.4832875    -1.7721587     1.3202508
C           2.3414837    -1.0686429     6.1034498
H           2.8649194    -0.6796639     6.9725824
C           1.6013934    -0.2089847     5.2895953
H           1.5471517     0.8510543     5.5220833
C           0.9289456    -0.7086612     4.1754208
H           0.3544539    -0.0349401     3.5440710
C           0.9832449    -2.0728005     3.8632962
C           1.7297730    -2.9279911     4.6849586
H           1.7823298    -3.9877338     4.4477023
C           2.4050276    -2.4294965     5.7980891
H           2.9794977    -3.1038568     6.4271481
28
387_C13H12O2S_6-11-12-23 (-120,) energy =   -1051.1815477
C          -1.1841125    -0.7798209    -2.0366325
H          -1.7781531    -0.2554603    -2.7801064
C          -1.3785093    -2.1479123    -1.8305897
H          -2.1170876    -2.6881849    -2.4160219
C          -0.6166891    -2.8274847    -0.8794177
H          -0.7358681    -3.8942747    -0.7203461
C           0.3331341    -2.1176571    -0.1428256
C           0.5458223    -0.7527682    -0.3448795
H           1.3139679    -0.2375531     0.2226152
C          -0.2224738    -0.0847103    -1.2991417
H          -0.0640752     0.9759500    -1.4724704
S           1.3125987    -2.9843910     1.1006519
C           0.2761506    -2.8670340     2.6591898
H           0.0654247    -3.9151631     2.8873000
H          -0.6549529    -2.3746484     2.3667805
O           1.3356398    -4.4107673     0.7276581
O           2.5590687    -2.2272649     1.2905856
C           2.2611448    -0.8370444     5.8960357
H           2.7612413    -0.3267919     6.7147296
C           1.3335826    -0.1553893     5.1066965
H           1.1076000     0.8880750     5.3088346
C           0.6919103    -0.8136472     4.0579749
H          -0.0324702    -0.2793840     3.4471600
C           0.9659716    -2.1602200     3.7867659
C           1.8987758    -2.8363535     4.5847354
H           2.1225693    -3.8808265     4.3822036
C           2.5422796    -2.1791737     5.6317030
H           3.2632534    -2.7155671     6.2423546
28
387_C13H12O2S_6-11-12-23 (-105,) energy =   -1051.1828365
C          -1.0408994    -0.6110934    -1.8434898
H          -1.5844404     0.0224530    -2.5390469
C          -1.3697501    -1.9646682    -1.7342040
H          -2.1624325    -2.3842825    -2.3471483
C          -0.6745604    -2.7850221    -0.8450233
H          -0.8988459    -3.8430817    -0.7587337
C           0.3466260    -2.2286140    -0.0732414
C           0.6938401    -0.8802102    -0.1788700
H           1.5125993    -0.4859092     0.4142026
C          -0.0104039    -0.0702600    -1.0706803
H           0.2513443     0.9795624    -1.1680287
S           1.2409113    -3.2753211     1.0917440
C           0.2814646    -3.1094078     2.6866628
H           0.2011608    -4.1522811     3.0080096
H          -0.7138232    -2.7549762     2.4062894
O           1.0476294    -4.6703501     0.6539808
O           2.5880890    -2.7144489     1.2732077
C           2.1691783    -0.6311442     5.6597734
H           2.6438032    -0.0082467     6.4130820
C           1.0939863    -0.1387148     4.9190115
H           0.7261439     0.8688982     5.0930043
C           0.4855907    -0.9427131     3.9548506
H          -0.3549854    -0.5563759     3.3826776
C           0.9400673    -2.2474654     3.7213541
C           2.0218992    -2.7319224     4.4694053
H           2.3896685    -3.7389643     4.2920730
C           2.6313853    -1.9293968     5.4317251
H           3.4689037    -2.3178093     6.0045351
28
387_C13H12O2S_6-11-12-23 (-90,) energy =   -1051.1849705
C          -0.9071148    -0.4682019    -1.6006058
H          -1.4040907     0.2588248    -2.2370831
C          -1.3739902    -1.7844488    -1.5541395
H          -2.2272148    -2.0819656    -2.1571166
C          -0.7394962    -2.7240728    -0.7412339
H          -1.0712037    -3.7565219    -0.7047123
C           0.3615095    -2.3238516     0.0180915
C           0.8454804    -1.0146070    -0.0248639
H           1.7201720    -0.7428784     0.5566097
C           0.2006259    -0.0842995    -0.8410758
H           0.5680859     0.9368081    -0.8894357
S           1.1764703    -3.5262170     1.0846322
C           0.3117563    -3.3539257     2.7201306
H           0.3802108    -4.3753356     3.1091095
H          -0.7353400    -3.1470790     2.4838677
O           0.8115511    -4.8660105     0.5887983
O           2.5844468    -3.1300831     1.2406796
C           2.0447391    -0.4677347     5.4061813
H           2.4802220     0.2582085     6.0874719
C           0.8689899    -0.1653024     4.7180885
H           0.3838163     0.7964734     4.8611088
C           0.3107739    -1.1011403     3.8467134
H          -0.6079788    -0.8638987     3.3152111
C           0.9169384    -2.3503399     3.6558872
C           2.0999133    -2.6432642     4.3491156
H           2.5863466    -3.6026352     4.1985835
C           2.6585770    -1.7084610     5.2184667
H           3.5749972    -1.9488661     5.7502767
28
387_C13H12O2S_6-11-12-23 (-75,) energy =   -1051.1866589
C          -0.7377184    -0.3111852    -1.3683642
H          -1.1786175     0.4961565    -1.9467361
C          -1.3474659    -1.5683792    -1.3534612
H          -2.2560018    -1.7409645    -1.9234183
C          -0.7848786    -2.6096568    -0.6150880
H          -1.2286173    -3.5998325    -0.6073328
C           0.3887968    -2.3706426     0.1027433
C           1.0145097    -1.1222559     0.0899165
H           1.9394622    -0.9758356     0.6371949
C           0.4406413    -0.0890105    -0.6518425
H           0.9176002     0.8866516    -0.6751122
S           1.1131258    -3.7086129     1.0661455
C           0.3578111    -3.5401241     2.7453912
H           0.5760143    -4.5211975     3.1816320
H          -0.7203859    -3.4747503     2.5767396
O           0.5939354    -4.9778703     0.5258011
O           2.5604808    -3.4667783     1.1787975
C           1.8835811    -0.2995231     5.1394438
H           2.2663782     0.5155275     5.7477265
C           0.6276943    -0.1961342     4.5399473
H           0.0277086     0.6991847     4.6786084
C           0.1375365    -1.2457409     3.7621646
H          -0.8427085    -1.1633305     3.2985718
C           0.8924724    -2.4123248     3.5791512
C           2.1547362    -2.5058575     4.1833783
H           2.7544735    -3.3985701     4.0340723
C           2.6457409    -1.4561164     4.9576255
H           3.6247306    -1.5418275     5.4210650
28
387_C13H12O2S_6-11-12-23 (-60,) energy =   -1051.1871483
C          -0.5518548    -0.1858178    -1.1527517
H          -0.9267969     0.6865081    -1.6811464
C          -1.3049537    -1.3623922    -1.1322284
H          -2.2598532    -1.4085084    -1.6480914
C          -0.8263190    -2.4862988    -0.4585026
H          -1.3831289    -3.4176600    -0.4509527
C           0.4077505    -2.4105570     0.1908515
C           1.1752471    -1.2442660     0.1710931
H           2.1406872    -1.2246483     0.6645632
C           0.6850833    -0.1274216    -0.5061193
H           1.2722254     0.7860185    -0.5334111
S           1.0273897    -3.8629661     1.0556327
C           0.4063015    -3.7017616     2.7858923
H           0.7775028    -4.6258510     3.2425627
H          -0.6823001    -3.7695768     2.7102657
O           0.3564739    -5.0480502     0.4933445
O           2.4971664    -3.7721824     1.0980928
C           1.6964204    -0.1704262     4.8921887
H           2.0202736     0.7176627     5.4281530
C           0.3843142    -0.2685313     4.4271697
H          -0.3181423     0.5426574     4.5981800
C          -0.0298963    -1.4110142     3.7417207
H          -1.0531641    -1.4838792     3.3809923
C           0.8588666    -2.4709163     3.5183045
C           2.1761764    -2.3635685     3.9888757
H           2.8753746    -3.1740820     3.8066522
C           2.5912378    -1.2198629     4.6693614
H           3.6140283    -1.1496612     5.0294240
28
387_C13H12O2S_6-11-12-23 (-45,) energy =   -1051.1861131
C          -0.3859397    -0.0193658    -0.9484042
H          -0.6993841     0.9052552    -1.4254291
C          -1.2798278    -1.0885479    -0.8516524
H          -2.2833650    -0.9998890    -1.2580053
C          -0.8806851    -2.2789801    -0.2436793
H          -1.5502435    -3.1309213    -0.1832765
C           0.4160382    -2.3770023     0.2653905
C           1.3228996    -1.3204696     0.1661520
H           2.3301721    -1.4374212     0.5496598
C           0.9118984    -0.1357430    -0.4446933
H           1.6072240     0.6942042    -0.5319873
S           0.9329280    -3.9206761     1.0350799
C           0.4788851    -3.7796929     2.8220190
H           1.0167181    -4.6281168     3.2578864
H          -0.5934813    -3.9880795     2.8614664
O           0.1114506    -5.0102846     0.4806848
O           2.4052444    -3.9714180     0.9719502
C           1.4750962    -0.0266682     4.6912025
H           1.7259051     0.9174586     5.1671214
C           0.1513704    -0.3103217     4.3518967
H          -0.6329793     0.4119545     4.5612117
C          -0.1695243    -1.5242533     3.7440099
H          -1.2023632    -1.7404761     3.4815501
C           0.8264454    -2.4711256     3.4723737
C           2.1544612    -2.1783854     3.8174227
H           2.9338264    -2.9035123     3.6005430
C           2.4756785    -0.9632011     4.4208253
H           3.5078331    -0.7495204     4.6849508
28
387_C13H12O2S_6-11-12-23 (-30,) energy =   -1051.1839330
C          -0.2072151     0.0328330    -0.8319061
H          -0.4590355     0.9903116    -1.2797317
C          -1.2013562    -0.9310317    -0.6483701
H          -2.2225119    -0.7284134    -0.9586388
C          -0.8816832    -2.1629061    -0.0769952
H          -1.6332008    -2.9356828     0.0485035
C           0.4378158    -2.4084850     0.3078944
C           1.4433434    -1.4592051     0.1193345
H           2.4636046    -1.6922517     0.4021564
C           1.1112980    -0.2314947    -0.4531770
H           1.8836913     0.5161332    -0.6094295
S           0.8516317    -4.0117010     1.0175456
C           0.6109883    -3.8742578     2.8557072
H           1.3130149    -4.6253052     3.2299524
H          -0.4100128    -4.2254181     3.0254332
O          -0.1328382    -4.9951776     0.5353753
O           2.2976418    -4.2127423     0.8034806
C           1.2773174     0.0262227     4.5595320
H           1.4452306     1.0079707     4.9938295
C          -0.0229023    -0.4117651     4.3022069
H          -0.8706411     0.2269657     4.5346676
C          -0.2391300    -1.6736340     3.7488602
H          -1.2541524    -2.0109835     3.5532333
C           0.8403552    -2.5144400     3.4485118
C           2.1433512    -2.0666962     3.7119818
H           2.9862840    -2.7126279     3.4797054
C           2.3603009    -0.8041897     4.2624550
H           3.3746522    -0.4713141     4.4651329
28
387_C13H12O2S_6-11-12-23 (-15,) energy =   -1051.1816720
C           0.0621337    -3.7236323    -0.7473595
H          -0.1268642    -4.7118468    -1.1577649
C           1.3504503    -3.1861226    -0.7946476
H           2.1612911    -3.7506802    -1.2462008
C           1.5968605    -1.9164086    -0.2719690
H           2.5843312    -1.4695999    -0.3227183
C           0.5408622    -1.2022315     0.2965753
C          -0.7536652    -1.7217921     0.3394517
H          -1.5591608    -1.1282561     0.7574647
C          -0.9875295    -2.9924841    -0.1858371
H          -1.9908277    -3.4082822    -0.1634797
S           0.8512726     0.4553299     0.9316768
C           1.2996304     0.3010714     2.7420735
H           0.7491091     1.1357684     3.1839600
H           2.3690242     0.5247941     2.7579129
O           2.0448553     0.9815695     0.2463950
O          -0.4348809     1.1759568     0.8849137
C           0.4144936    -3.4545331     4.6591707
H           0.1928026    -4.3995194     5.1474682
C           1.6817466    -3.2256887     4.1200493
H           2.4500917    -3.9910467     4.1874141
C           1.9682839    -2.0109949     3.4977376
H           2.9589072    -1.8357301     3.0849509
C           0.9930411    -1.0088451     3.4063617
C          -0.2758821    -1.2472459     3.9539846
H          -1.0369819    -0.4728758     3.8947666
C          -0.5639597    -2.4617714     4.5753322
H          -1.5501165    -2.6305164     4.9993288
28
387_C13H12O2S_6-11-12-23 (0,) energy =   -1051.1807735
C          -0.1141608    -3.6785273    -0.7145493
H          -0.3705378    -4.6561496    -1.1135983
C           1.2254689    -3.2922678    -0.6291067
H           2.0096619    -3.9644650    -0.9656484
C           1.5602535    -2.0370371    -0.1210320
H           2.5926197    -1.7079147    -0.0704491
C           0.5389189    -1.1839290     0.2993637
C          -0.8042861    -1.5519358     0.2086872
H          -1.5766118    -0.8523778     0.5100847
C          -1.1267547    -2.8097162    -0.3007724
H          -2.1682191    -3.1075928    -0.3824708
S           0.9617337     0.4581706     0.9103269
C           1.1822106     0.3496042     2.7706353
H           0.4670284     1.0898341     3.1374554
H           2.1982547     0.7269309     2.9097530
O           2.2833521     0.8009783     0.3540683
O          -0.2098362     1.3228783     0.6795146
C           0.6191261    -3.5025601     4.6173785
H           0.4783524    -4.4712617     5.0889466
C           1.8830277    -3.1210310     4.1631616
H           2.7300917    -3.7913230     4.2809282
C           2.0641073    -1.8752987     3.5632236
H           3.0517460    -1.5783896     3.2182682
C           0.9849638    -0.9939307     3.4083750
C          -0.2793545    -1.3855198     3.8706025
H          -1.1218955    -0.7059676     3.7660707
C          -0.4616593    -2.6308969     4.4708046
H          -1.4465195    -2.9181393     4.8288992
28
387_C13H12O2S_6-11-12-23 (15,) energy =   -1051.1816722
C          -0.3013828    -3.6462625    -0.6999760
H          -0.6245568    -4.6066469    -1.0923162
C           1.0545859    -3.4171770    -0.4538408
H           1.7849285    -4.1948940    -0.6582146
C           1.4773417    -2.1856489     0.0459906
H           2.5275671    -1.9797470     0.2204849
C           0.5249112    -1.1969581     0.2971578
C          -0.8316844    -1.4076224     0.0449954
H          -1.5426856    -0.6061881     0.2167625
C          -1.2422630    -2.6433217    -0.4556185
H          -2.2940076    -2.8191587    -0.6629918
S           1.0592283     0.4140089     0.9026682
C           1.0533409     0.3543204     2.7730570
H           0.1993460     0.9796543     3.0440633
H           1.9793181     0.8807821     3.0192095
O           2.4690637     0.5726214     0.4991273
O           0.0387219     1.4020044     0.5105801
C           0.8397291    -3.5416074     4.6008777
H           0.7866450    -4.5218007     5.0667109
C           2.0753594    -3.0078550     4.2292064
H           2.9880123    -3.5705490     4.4058222
C           2.1426704    -1.7471263     3.6373217
H           3.1062518    -1.3304621     3.3539313
C           0.9762368    -1.0033844     3.4069886
C          -0.2585151    -1.5472995     3.7855263
H          -1.1695328    -0.9770796     3.6202081
C          -0.3268334    -2.8075542     4.3787686
H          -1.2910499    -3.2140582     4.6714895
28
387_C13H12O2S_6-11-12-23 (30,) energy =   -1051.1839327
C          -0.4545146    -3.5550202    -0.7524095
H          -0.8372615    -4.4872728    -1.1587407
C           0.8890682    -3.4591464    -0.3817533
H           1.5506457    -4.3121590    -0.5028256
C           1.3893438    -2.2653474     0.1376665
H           2.4329261    -2.1636558     0.4130426
C           0.5250447    -1.1790592     0.2816647
C          -0.8169836    -1.2562610    -0.0959549
H          -1.4549190    -0.3828466    -0.0068698
C          -1.3053744    -2.4559514    -0.6139478
H          -2.3457130    -2.5288521    -0.9180382
S           1.1586766     0.3809066     0.9220452
C           0.9054421     0.3588689     2.7635166
H          -0.0566653     0.8551948     2.9138064
H           1.7055880     1.0211153     3.1072547
O           2.6181063     0.3700905     0.7048546
O           0.3188682     1.4690914     0.3934274
C           1.0296468    -3.5178947     4.6388832
H           1.0615603    -4.4934489     5.1163426
C           2.2162266    -2.8589714     4.3094922
H           3.1750894    -3.3200452     4.5302754
C           2.1746528    -1.6039156     3.7034864
H           3.0976861    -1.0908219     3.4457071
C           0.9454564    -0.9923402     3.4161290
C          -0.2392323    -1.6616475     3.7491409
H          -1.1980376    -1.1955760     3.5351365
C          -0.1980463    -2.9158585     4.3579787
H          -1.1250041    -3.4209448     4.6154293
28
387_C13H12O2S_6-11-12-23 (45,) energy =   -1051.1861132
C          -0.6245949    -3.4839204    -0.8718562
H          -1.0641705    -4.3762640    -1.3091650
C           0.6781439    -3.5260116    -0.3691076
H           1.2517581    -4.4471523    -0.4176606
C           1.2506330    -2.3839408     0.1908707
H           2.2653909    -2.3906590     0.5724387
C           0.4987003    -1.2089394     0.2406258
C          -0.8004200    -1.1488985    -0.2682302
H          -1.3457197    -0.2108188    -0.2475004
C          -1.3617842    -2.2982198    -0.8250110
H          -2.3689738    -2.2649895    -1.2306226
S           1.2259966     0.2806600     0.9439043
C           0.7614971     0.2821136     2.7336798
H          -0.2716874     0.6381952     2.7602241
H           1.4124939     1.0663592     3.1339481
O           2.6910248     0.1245666     0.8836302
O           0.5615651     1.4480344     0.3396199
C           1.2334801    -3.4870544     4.7686032
H           1.3519096    -4.4351216     5.2862232
C           2.3534991    -2.7108341     4.4613228
H           3.3466368    -3.0538071     4.7384687
C           2.2020715    -1.4904769     3.8042310
H           3.0735795    -0.8901355     3.5586181
C           0.9265224    -1.0321751     3.4418536
C          -0.1903206    -1.8192085     3.7508493
H          -1.1837148    -1.4734009     3.4751963
C          -0.0390541    -3.0380847     4.4123545
H          -0.9152753    -3.6350659     4.6501433
28
387_C13H12O2S_6-11-12-23 (60,) energy =   -1051.1871484
C          -0.7668183    -3.3060659    -1.0832054
H          -1.2602453    -4.1403590    -1.5743363
C           0.4518450    -3.5068386    -0.4304049
H           0.9069389    -4.4930142    -0.4157477
C           1.0934167    -2.4398818     0.1990484
H           2.0481493    -2.5706699     0.6963828
C           0.4945611    -1.1789864     0.1651356
C          -0.7188349    -0.9616126    -0.4911129
H          -1.1409158     0.0374778    -0.5257477
C          -1.3500321    -2.0369347    -1.1167727
H          -2.2907220    -1.8819062    -1.6374887
S           1.3114247     0.2101765     0.9677439
C           0.6785888     0.2122724     2.7012431
H          -0.3903752     0.4265951     2.6189491
H           1.1751889     1.0952472     3.1183931
O           2.7546321    -0.0810415     1.0191330
O           0.8093407     1.4508619     0.3518635
C           1.4727450    -3.3681803     4.9640717
H           1.6718233    -4.2682995     5.5393857
C           2.5036916    -2.4634175     4.6990614
H           3.5078085    -2.6586232     5.0655595
C           2.2494085    -1.3040627     3.9679096
H           3.0540362    -0.6072176     3.7534337
C           0.9584812    -1.0360997     3.4882793
C          -0.0679200    -1.9520374     3.7543575
H          -1.0722146    -1.7543409     3.3871780
C           0.1857359    -3.1098443     4.4904089
H          -0.6219674    -3.8076492     4.6938929
28
387_C13H12O2S_6-11-12-23 (75,) energy =   -1051.1866589
C          -0.9464247    -3.1768495    -1.2993618
H          -1.4957916    -3.9414651    -1.8418319
C           0.1928105    -3.5254837    -0.5700869
H           0.5317634    -4.5572621    -0.5475516
C           0.9049270    -2.5476999     0.1256044
H           1.8029349    -2.7944118     0.6816339
C           0.4561284    -1.2260789     0.0800128
C          -0.6761642    -0.8615631    -0.6513559
H          -0.9801413     0.1793856    -0.6896864
C          -1.3782596    -1.8486344    -1.3432723
H          -2.2565458    -1.5794953    -1.9231301
S           1.3596546     0.0423680     0.9843294
C           0.5920101     0.0550491     2.6663406
H          -0.4853561     0.1296457     2.4959841
H           0.9425961     1.0158721     3.0590897
O           2.7605908    -0.3900245     1.1131528
O           1.0178978     1.3448821     0.3851100
C           1.6638203    -3.2529949     5.2100446
H           1.9324226    -4.0845863     5.8559231
C           2.5780683    -2.2225974     4.9773786
H           3.5612562    -2.2522720     5.4388921
C           2.2342713    -1.1514000     4.1546896
H           2.9514428    -0.3582765     3.9662165
C           0.9688994    -1.0966147     3.5521913
C           0.0604808    -2.1378274     3.7866733
H          -0.9235656    -2.1049591     3.3249939
C           0.4034077    -3.2086965     4.6128122
H          -0.3143729    -4.0049177     4.7906743
28
387_C13H12O2S_6-11-12-23 (90,) energy =   -1051.1849705
C          -1.0808744    -2.9970678    -1.5448875
H          -1.6752738    -3.6753294    -2.1509451
C          -0.0349459    -3.4970178    -0.7655330
H           0.1876343    -4.5602582    -0.7682155
C           0.7344997    -2.6302614     0.0117703
H           1.5645846    -2.9953244     0.6073408
C           0.4366185    -1.2659796    -0.0036367
C          -0.6004337    -0.7509427    -0.7835646
H          -0.7863099     0.3180074    -0.7933736
C          -1.3609623    -1.6281306    -1.5571546
H          -2.1663288    -1.2418260    -2.1754187
S           1.4129266    -0.1426453     1.0124453
C           0.5366242    -0.1217460     2.6507671
H          -0.5296011    -0.1917034     2.4199395
H           0.7469428     0.8963262     2.9950788
O           2.7528108    -0.7228024     1.1908649
O           1.2360202     1.2118098     0.4572824
C           1.8604414    -3.0995813     5.4663096
H           2.1931448    -3.8482346     6.1801847
C           2.6394487    -1.9650016     5.2268933
H           3.5816324    -1.8304208     5.7509415
C           2.2130481    -1.0009589     4.3155469
H           2.8266933    -0.1253472     4.1247192
C           0.9992359    -1.1576616     3.6315462
C           0.2267021    -2.3015662     3.8745231
H          -0.7173624    -2.4326992     3.3506623
C           0.6524502    -3.2665264     4.7879042
H           0.0394076    -4.1448759     4.9710557
28
387_C13H12O2S_6-11-12-23 (105,) energy =   -1051.1828365
C          -1.1950412    -2.8457159    -1.7934098
H          -1.8232134    -3.4272420    -2.4626367
C          -0.2463875    -3.4897376    -0.9953117
H          -0.1323989    -4.5688284    -1.0469156
C           0.5657720    -2.7471879    -0.1372177
H           1.3243071    -3.2246783     0.4745170
C           0.4081187    -1.3605144    -0.0906635
C          -0.5291249    -0.7021637    -0.8883454
H          -0.6054545     0.3794390    -0.8486797
C          -1.3336933    -1.4563016    -1.7432197
H          -2.0629619    -0.9580908    -2.3757218
S           1.4420601    -0.3981009     1.0305966
C           0.4729431    -0.3593590     2.6278458
H          -0.5626096    -0.5842614     2.3597031
H           0.5388908     0.6976155     2.9030751
O           2.6987432    -1.1321340     1.2411642
O           1.4431465     0.9897636     0.5316787
C           2.0064358    -2.9424768     5.7120908
H           2.3922906    -3.5915041     6.4935005
C           2.6428238    -1.7312982     5.4304495
H           3.5268937    -1.4374837     5.9894655
C           2.1478228    -0.8949655     4.4319228
H           2.6494656     0.0435640     4.2118776
C           1.0082267    -1.2582323     3.7013206
C           0.3786126    -2.4765994     3.9886602
H          -0.5081441    -2.7669495     3.4295477
C           0.8722352    -3.3142593     4.9890455
H           0.3695956    -4.2532127     5.2049149
28
387_C13H12O2S_6-11-12-23 (120,) energy =   -1051.1815477
C          -1.3134115    -2.6667007    -1.9947583
H          -1.9761037    -3.1357894    -2.7168316
C          -0.4553201    -3.4553595    -1.2243020
H          -0.4456881    -4.5342512    -1.3508827
C           0.4003271    -2.8589647    -0.2972715
H           1.0916415    -3.4492059     0.2954028
C           0.3786078    -1.4702830    -0.1558964
C          -0.4656724    -0.6685557    -0.9259527
H          -0.4356709     0.4103607    -0.8136881
C          -1.3164531    -1.2771726    -1.8493447
H          -1.9747479    -0.6661892    -2.4604662
S           1.4715320    -0.6938022     1.0521238
C           0.4328651    -0.5994709     2.6107325
H          -0.5579713    -0.9710262     2.3366967
H           0.3692005     0.4765978     2.7925125
O           2.6021775    -1.6065938     1.2789400
O           1.6900268     0.6982201     0.6176922
C           2.1273221    -2.7414116     5.9390079
H           2.5541877    -3.2800178     6.7806437
C           2.5907420    -1.4637126     5.6180948
H           3.3805251    -1.0056123     6.2070429
C           2.0409648    -0.7705118     4.5413714
H           2.4059951     0.2232746     4.2941503
C           1.0215904    -1.3451215     3.7701991
C           0.5650908    -2.6279084     4.0987855
H          -0.2277666    -3.0827154     3.5090823
C           1.1123952    -3.3224732     5.1771459
H           0.7447670    -4.3149711     5.4232906
28
387_C13H12O2S_6-11-12-23 (135,) energy =   -1051.1819962
C          -1.3877271    -2.4420692    -2.1445458
H          -2.0695141    -2.7903541    -2.9155556
C          -0.6620406    -3.3667588    -1.3890908
H          -0.7735843    -4.4310242    -1.5763518
C           0.2171023    -2.9263721    -0.3993086
H           0.8083709    -3.6262388     0.1820935
C           0.3533340    -1.5543725    -0.1793459
C          -0.3568964    -0.6189697    -0.9337656
H          -0.2049679     0.4414352    -0.7600793
C          -1.2331686    -1.0719122    -1.9208531
H          -1.7881963    -0.3553562    -2.5196689
S           1.4772946    -0.9769590     1.1096112
C           0.3866989    -0.8490505     2.6255642
H          -0.5411899    -1.3674160     2.3682275