28
387_C13H12O2S_4-6-11-12 (-165,) energy =   -1051.1791999
C          -1.3443781    -1.7606219    -2.5499226
H          -1.9220170    -1.6798689    -3.4664059
C          -0.2923532    -2.6763219    -2.4655184
H          -0.0499099    -3.3086840    -3.3147680
C           0.4483742    -2.7865996    -1.2907709
H           1.2540157    -3.5090140    -1.2074063
C           0.1281932    -1.9739473    -0.1983869
C          -0.9101933    -1.0442444    -0.2792073
H          -1.1516292    -0.3960289     0.5560236
C          -1.6530257    -0.9490469    -1.4583095
H          -2.4687596    -0.2344613    -1.5213963
S           1.2207163    -2.1186292     1.2363206
C           0.3076722    -1.3162240     2.6228235
H          -0.6795263    -1.7855172     2.6571703
H           0.2064502    -0.2623028     2.3525483
O           1.3525338    -3.5541884     1.5330608
O           2.4243579    -1.3079883     0.9829723
C           2.4897705    -1.8342178     6.2991486
H           3.0393559    -1.9641628     7.2275234
C           2.7653976    -0.7460389     5.4690341
H           3.5327268    -0.0285358     5.7462322
C           2.0584344    -0.5772079     4.2791941
H           2.2822069     0.2624007     3.6270823
C           1.0637093    -1.4925571     3.9111952
C           0.8013463    -2.5891051     4.7422561
H           0.0454597    -3.3138588     4.4523570
C           1.5079551    -2.7565588     5.9323584
H           1.2932337    -3.6086416     6.5713621
28
387_C13H12O2S_4-6-11-12 (-150,) energy =   -1051.1809804
C          -1.3478043    -1.7549860    -2.5448619
H          -1.9320234    -1.6836504    -3.4580217
C          -0.4346269    -2.7984400    -2.3791840
H          -0.3049903    -3.5396373    -3.1626129
C           0.3127833    -2.8964581    -1.2061923
H           1.0111902    -3.7123774    -1.0522139
C           0.1355100    -1.9429988    -0.2002696
C          -0.7550500    -0.8798482    -0.3679240
H          -0.8681212    -0.1160830     0.3944613
C          -1.5082526    -0.7992387    -1.5399704
H          -2.2128802     0.0171751    -1.6700555
S           1.2484730    -2.0527839     1.2209037
C           0.2666359    -1.3976097     2.6382395
H          -0.6684317    -1.9648388     2.6493157
H           0.0566352    -0.3507281     2.4070413
O           1.5080735    -3.4828896     1.4544580
O           2.3697421    -1.1217118     1.0065071
C           2.4981251    -1.8234843     6.2968922
H           3.0606155    -1.9306207     7.2204511
C           2.6574693    -0.6822501     5.5086250
H           3.3471581     0.0999020     5.8136482
C           1.9337438    -0.5432153     4.3250473
H           2.0679734     0.3390005     3.7053659
C           1.0382212    -1.5421325     3.9210350
C           0.8926463    -2.6900161     4.7105127
H           0.2147740    -3.4774796     4.3926211
C           1.6158733    -2.8279390     5.8944526
H           1.4920058    -3.7209206     6.5008633
28
387_C13H12O2S_4-6-11-12 (-135,) energy =   -1051.1830024
C          -1.3519072    -1.7528504    -2.5221123
H          -1.9552324    -1.6854177    -3.4231151
C          -0.5895812    -2.8965267    -2.2783609
H          -0.5948507    -3.7178836    -2.9892313
C           0.1834346    -2.9901658    -1.1203344
H           0.7744480    -3.8737955    -0.9039683
C           0.1784345    -1.9311832    -0.2112502
C          -0.5551111    -0.7680386    -0.4618826
H          -0.5143163     0.0737657     0.2223769
C          -1.3348448    -0.6899183    -1.6153035
H          -1.9179878     0.2052440    -1.8118565
S           1.2979105    -2.0356343     1.2031603
C           0.2552391    -1.5194721     2.6349226
H          -0.6179976    -2.1780774     2.6217464
H          -0.0617808    -0.4953053     2.4236114
O           1.6555217    -3.4534796     1.3742404
O           2.3454127    -1.0130566     1.0397437
C           2.4920967    -1.8125276     6.3030085
H           3.0560745    -1.8864749     7.2289038
C           2.5331940    -0.6373923     5.5502700
H           3.1322270     0.2048444     5.8853642
C           1.8073288    -0.5412631     4.3637733
H           1.8500602     0.3689681     3.7721301
C           1.0275398    -1.6177213     3.9208281
C           1.0008193    -2.7979536     4.6750746
H           0.4134429    -3.6434617     4.3274885
C           1.7261923    -2.8932901     5.8618920
H           1.6946730    -3.8123558     6.4405388
28
387_C13H12O2S_4-6-11-12 (-120,) energy =   -1051.1847525
C          -1.3643573    -1.7183967    -2.4875703
H          -1.9949257    -1.6504977    -3.3697395
C          -0.7524108    -2.9299901    -2.1617426
H          -0.9008726    -3.8031988    -2.7906261
C           0.0564812    -3.0235686    -1.0278056
H           0.5432555    -3.9531504    -0.7525260
C           0.2375068    -1.8937918    -0.2300441
C          -0.3455295    -0.6677010    -0.5622691
H          -0.1495521     0.2158113     0.0378096
C          -1.1605947    -0.5882891    -1.6904288
H          -1.6247555     0.3574036    -1.9553747
S           1.3542118    -2.0050189     1.1833841
C           0.2619106    -1.6197277     2.6197178
H          -0.5434837    -2.3589979     2.5827110
H          -0.1526196    -0.6279975     2.4196644
O           1.7908224    -3.4066447     1.2962567
O           2.3350781    -0.9119964     1.0753137
C           2.4804644    -1.7729562     6.3073162
H           3.0398299    -1.8117642     7.2381408
C           2.4025797    -0.5796771     5.5867178
H           2.9042054     0.3122275     5.9519569
C           1.6825477    -0.5288504     4.3938784
H           1.6327944     0.3972186     3.8278523
C           1.0270418    -1.6695923     3.9121789
C           1.1194864    -2.8663710     4.6348328
H           0.6293261    -3.7596873     4.2574595
C           1.8392683    -2.9167352     5.8278157
H           1.9006625    -3.8496209     6.3814317
28
387_C13H12O2S_4-6-11-12 (-105,) energy =   -1051.1858774
C          -1.3911723    -1.7315157    -2.4487166
H          -2.0495422    -1.6856279    -3.3118770
C          -0.9001106    -2.9638167    -2.0125006
H          -1.1706475    -3.8750079    -2.5383722
C          -0.0541444    -3.0282834    -0.9040631
H           0.3507171    -3.9714367    -0.5524418
C           0.2860769    -1.8466540    -0.2448088
C          -0.1812820    -0.6048686    -0.6829386
H           0.1360009     0.3046783    -0.1823181
C          -1.0310813    -0.5540545    -1.7872830
H          -1.4019709     0.4043589    -2.1392430
S           1.3998295    -1.9235895     1.1717781
C           0.2659092    -1.6786586     2.6078485
H          -0.4773336    -2.4776921     2.5333207
H          -0.2234820    -0.7163210     2.4329570
O           1.9403453    -3.2913449     1.2428193
O           2.2909787    -0.7528568     1.1097054
C           2.4560971    -1.7828814     6.3137765
H           3.0092875    -1.8093908     7.2487069
C           2.2911967    -0.5757553     5.6318432
H           2.7186985     0.3397110     6.0314474
C           1.5793801    -0.5412529     4.4336004
H           1.4620020     0.3966116     3.8977792
C           1.0189334    -1.7127477     3.9074701
C           1.1982633    -2.9221097     4.5917644
H           0.7825858    -3.8377642     4.1800710
C           1.9099229    -2.9562344     5.7901847
H           2.0393352    -3.8995409     6.3135817
28
387_C13H12O2S_4-6-11-12 (-90,) energy =   -1051.1862412
C          -1.4195114    -1.7209732    -2.4376525
H          -2.0962441    -1.6933374    -3.2872833
C          -1.0666600    -2.9481850    -1.8707432
H          -1.4624634    -3.8727213    -2.2814158
C          -0.1958492    -2.9907187    -0.7815685
H           0.1107107    -3.9341107    -0.3414314
C           0.3085580    -1.7923690    -0.2725910
C          -0.0275297    -0.5598097    -0.8360375
H           0.4073343     0.3510641    -0.4374383
C          -0.8992139    -0.5300604    -1.9249508
H          -1.1651277     0.4209638    -2.3776521
S           1.4223996    -1.8377543     1.1445758
C           0.2694162    -1.7270955     2.5826020
H          -0.4125643    -2.5754934     2.4753407
H          -0.2888177    -0.7977385     2.4375468
O           2.0545844    -3.1673756     1.1767854
O           2.2300380    -0.6065845     1.1207018
C           2.4416132    -1.7990435     6.2998215
H           2.9896197    -1.8172946     7.2380296
C           2.1731864    -0.5825615     5.6694158
H           2.5145151     0.3489134     6.1126113
C           1.4677172    -0.5589583     4.4671158
H           1.2687071     0.3875934     3.9720765
C           1.0171530    -1.7514029     3.8855106
C           1.2999745    -2.9690084     4.5184593
H           0.9704106    -3.8990905     4.0635229
C           2.0054597    -2.9922581     5.7207519
H           2.2158437    -3.9423753     6.2040633
28
387_C13H12O2S_4-6-11-12 (-75,) energy =   -1051.1858545
C          -1.4074006    -1.7066787    -2.4234373
H          -2.0873850    -1.6903342    -3.2707322
C          -1.2093628    -2.8950641    -1.7148241
H          -1.7288945    -3.8012399    -2.0130999
C          -0.3346399    -2.9231169    -0.6292486
H          -0.1464241    -3.8465683    -0.0902811
C           0.3308742    -1.7498829    -0.2644779
C           0.1413277    -0.5568574    -0.9626320
H           0.6832216     0.3322280    -0.6577113
C          -0.7313440    -0.5426238    -2.0519989
H          -0.8812243     0.3768706    -2.6106709
S           1.4365191    -1.7655369     1.1601136
C           0.2696831    -1.7889468     2.5909405
H          -0.3438073    -2.6837732     2.4533331
H          -0.3586447    -0.9016191     2.4716229
O           2.1572107    -3.0498469     1.1603863
O           2.1607662    -0.4837865     1.1798831
C           2.4313699    -1.8084501     6.3146390
H           2.9773961    -1.8130586     7.2541288
C           2.0444974    -0.5981086     5.7361857
H           2.2911257     0.3423652     6.2211692
C           1.3421035    -0.5918694     4.5318440
H           1.0505052     0.3510111     4.0772337
C           1.0126506    -1.7964341     3.8967302
C           1.4139039    -3.0067317     4.4778180
H           1.1801768    -3.9438042     3.9801457
C           2.1166101    -3.0126021     5.6818821
H           2.4200102    -3.9574245     6.1243634
28
387_C13H12O2S_4-6-11-12 (-60,) energy =   -1051.1845593
C          -1.3967371    -1.7012378    -2.4447248
H          -2.0672391    -1.6971557    -3.2996358
C          -1.3528876    -2.8150639    -1.6014152
H          -1.9840856    -3.6761984    -1.8013785
C          -0.4914974    -2.8275969    -0.5051865
H          -0.4280516    -3.7037098     0.1333134
C           0.3180107    -1.7140273    -0.2644503
C           0.2753494    -0.5921439    -1.0923304
H           0.9085617     0.2595709    -0.8676957
C          -0.5821584    -0.5956129    -2.1938290
H          -0.6165285     0.2678359    -2.8520724
S           1.4211895    -1.6903698     1.1638237
C           0.2677001    -1.8702369     2.5939659
H          -0.2611131    -2.8132007     2.4327562
H          -0.4410347    -1.0416141     2.5075769
O           2.2533039    -2.9047968     1.1218995
O           2.0351474    -0.3537843     1.2286707
C           2.4407768    -1.8073646     6.3109659
H           2.9885982    -1.7911562     7.2492923
C           1.9431580    -0.6200041     5.7707140
H           2.1051588     0.3236837     6.2842738
C           1.2382221    -0.6408590     4.5680698
H           0.8601573     0.2851908     4.1435572
C           1.0167645    -1.8504047     3.8964902
C           1.5289121    -3.0363125     4.4391426
H           1.3795350    -3.9749212     3.9127341
C           2.2342746    -3.0150832     5.6415837
H           2.6241009    -3.9414981     6.0542670
28
387_C13H12O2S_4-6-11-12 (-45,) energy =   -1051.1825851
C          -1.3524639    -1.6536231    -2.4709956
H          -1.9977566    -1.6416138    -3.3449459
C          -1.4897992    -2.6670192    -1.5194267
H          -2.2384019    -3.4429723    -1.6516234
C          -0.6622583    -2.6898818    -0.3967560
H          -0.7542762    -3.4948968     0.3256125
C           0.2985866    -1.6878655    -0.2373943
C           0.4315972    -0.6604818    -1.1730999
H           1.1649526     0.1209590    -1.0051645
C          -0.3915899    -0.6553159    -2.2995632
H          -0.2883412     0.1352481    -3.0373758
S           1.3948398    -1.6560337     1.2000919
C           0.2726113    -1.9896373     2.6265810
H          -0.1471390    -2.9839053     2.4568533
H          -0.5247380    -1.2437144     2.5634062
O           2.3238238    -2.7955501     1.1075079
O           1.9082884    -0.2820022     1.3248794
C           2.4635986    -1.7607629     6.3264800
H           3.0158964    -1.7029762     7.2605248
C           1.8220555    -0.6280224     5.8218534
H           1.8761944     0.3149306     6.3588936
C           1.1116905    -0.7022096     4.6245327
H           0.6218361     0.1825965     4.2272316
C           1.0288524    -1.9122170     3.9235059
C           1.6846665    -3.0420662     4.4299401
H           1.6430650    -3.9778048     3.8794801
C           2.3956905    -2.9670832     5.6268832
H           2.8980187    -3.8503555     6.0115720
28
387_C13H12O2S_4-6-11-12 (-30,) energy =   -1051.1805861
C          -1.3280660    -1.6509279    -2.5028299
H          -1.9483654    -1.6480139    -3.3946967
C          -1.6194408    -2.5262761    -1.4555695
H          -2.4650778    -3.2041237    -1.5290872
C          -0.8248668    -2.5374440    -0.3077281
H          -1.0503234    -3.2339856     0.4928244
C           0.2600496    -1.6624571    -0.2203150
C           0.5465702    -0.7677030    -1.2549838
H           1.3696672    -0.0692722    -1.1467606
C          -0.2449356    -0.7747134    -2.4024530
H          -0.0224656    -0.0864558    -3.2128877
S           1.3530680    -1.6042540     1.2209566
C           0.2838275    -2.0913073     2.6429697
H          -0.0291547    -3.1205466     2.4525700
H          -0.5873353    -1.4309957     2.6118888
O           2.3811333    -2.6496936     1.0769433
O           1.7499026    -0.1979241     1.3986334
C           2.4863824    -1.7345063     6.3261484
H           3.0410173    -1.6447553     7.2562781
C           1.7240215    -0.6617888     5.8599234
H           1.6861548     0.2666152     6.4230554
C           1.0107087    -0.7770307     4.6676137
H           0.4266609     0.0621018     4.2996689
C           1.0458580    -1.9697405     3.9338252
C           1.8221244    -3.0381607     4.4014930
H           1.8715388    -3.9576063     3.8248897
C           2.5362104    -2.9218089     5.5933565
H           3.1326923    -3.7577796     5.9480770
28
387_C13H12O2S_4-6-11-12 (-15,) energy =   -1051.1790373
C          -1.3010073    -1.6779356    -2.5307591
H          -1.8960858    -1.7044655    -3.4392256
C          -1.7176769    -2.3861614    -1.4038933
H          -2.6371199    -2.9640177    -1.4304649
C          -0.9554495    -2.3581028    -0.2334135
H          -1.2886792    -2.9202997     0.6319218
C           0.2248122    -1.6134020    -0.2044693
C           0.6408662    -0.8861674    -1.3246762
H           1.5434512    -0.2856467    -1.2744731
C          -0.1218556    -0.9291265    -2.4895043
H           0.2002472    -0.3696777    -3.3630942
S           1.3015603    -1.5053860     1.2456514
C           0.2905427    -2.1400439     2.6503742
H           0.0646326    -3.1840931     2.4192596
H          -0.6331127    -1.5548287     2.6572815
O           2.4243477    -2.4404066     1.0585536
O           1.5678252    -0.0762506     1.4759320
C           2.4977328    -1.7485993     6.3275173
H           3.0533768    -1.6510143     7.2562560
C           1.6400985    -0.7274583     5.9141371
H           1.5288161     0.1693842     6.5172520
C           0.9254556    -0.8537321     4.7236670
H           0.2671700    -0.0533087     4.3971765
C           1.0552834    -2.0065430     3.9388171
C           1.9269854    -3.0221463     4.3530010
H           2.0493166    -3.9083220     3.7366224
C           2.6417138    -2.8946677     5.5432845
H           3.3125172    -3.6898100     5.8566848
28
387_C13H12O2S_4-6-11-12 (0,) energy =   -1051.1783869
C          -1.2586892    -1.7530611    -2.5503923
H          -1.8267749    -1.8319309    -3.4729625
C          -1.7738177    -2.2819356    -1.3677190
H          -2.7425373    -2.7734495    -1.3646015
C          -1.0483079    -2.1834607    -0.1773711
H          -1.4631112    -2.6000202     0.7336724
C           0.1959760    -1.5517367    -0.1860095
C           0.7199220    -1.0178668    -1.3686839
H           1.6884566    -0.5278305    -1.3608515
C          -0.0118050    -1.1214650    -2.5489682
H           0.3917723    -0.7081083    -3.4688214
S           1.2338533    -1.3544428     1.2827816
C           0.2922527    -2.1384716     2.6593745
H           0.1346982    -3.1811941     2.3710299
H          -0.6684960    -1.6197479     2.7133979
O           2.4587531    -2.1433734     1.0701499
O           1.3316214     0.0869327     1.5655527
C           2.5256883    -1.7899522     6.3248805
H           3.0880699    -1.7028332     7.2505975
C           1.6009714    -0.8051095     5.9726635
H           1.4437417     0.0529558     6.6203177
C           0.8776254    -0.9176817     4.7860640
H           0.1671276    -0.1445412     4.5068168
C           1.0662588    -2.0210262     3.9440325
C           2.0048421    -2.9992696     4.2970804
H           2.1722004    -3.8453315     3.6364593
C           2.7280900    -2.8856496     5.4835429
H           3.4511573    -3.6518093     5.7492757
28
387_C13H12O2S_4-6-11-12 (15,) energy =   -1051.1790374
C          -1.2038610    -1.8460032    -2.5581393
H          -1.7375528    -1.9923195    -3.4929614
C          -1.8069601    -2.1941595    -1.3497931
H          -2.8091567    -2.6130860    -1.3397200
C          -1.1269966    -2.0061928    -0.1439158
H          -1.6120803    -2.2739836     0.7882464
C           0.1607985    -1.4680767    -0.1628331
C           0.7797948    -1.1324862    -1.3715637
H           1.7941516    -0.7466356    -1.3705767
C           0.0887889    -1.3151457    -2.5672008
H           0.5639411    -1.0513282    -3.5076947
S           1.1393414    -1.1698464     1.3297278
C           0.2929363    -2.1203570     2.6634331
H           0.2077404    -3.1497756     2.3046477
H          -0.7026796    -1.6820368     2.7684357
O           2.4629412    -1.7718302     1.1013799
O           1.0322160     0.2579090     1.6759151
C           2.5623762    -1.8450970     6.3126917
H           3.1335157    -1.7761717     7.2345658
C           1.5998638    -0.8793307     6.0125169
H           1.4219081    -0.0542415     6.6966312
C           0.8645441    -0.9685672     4.8313405
H           0.1247478    -0.2098795     4.5917895
C           1.0802536    -2.0292653     3.9418970
C           2.0565646    -2.9874647     4.2430287
H           2.2434595    -3.8006393     3.5470353
C           2.7910243    -2.8979083     5.4246667
H           3.5431206    -3.6489098     5.6500921
28
387_C13H12O2S_4-6-11-12 (30,) energy =   -1051.1805856
C          -1.1857755    -1.8792796    -2.5412180
H          -1.7060247    -2.0642231    -3.4768311
C          -1.8610020    -2.0255660    -1.3286212
H          -2.9052263    -2.3246671    -1.3164636
C          -1.1986222    -1.7863090    -0.1231968
H          -1.7393655    -1.8871594     0.8118387
C           0.1441124    -1.4028034    -0.1455641
C           0.8340925    -1.2748735    -1.3541184
H           1.8876619    -1.0161974    -1.3447568
C           0.1592476    -1.5025475    -2.5524111
H           0.6885423    -1.3972391    -3.4951150
S           1.0873273    -1.0629171     1.3611205
C           0.3296512    -2.1490636     2.6451559
H           0.3342695    -3.1614826     2.2317940
H          -0.7008605    -1.8069254     2.7662811
O           2.4635745    -1.5244884     1.1167189
O           0.8364927     0.3297035     1.7712805
C           2.5625213    -1.8625551     6.3163038
H           3.1251674    -1.7913321     7.2432257
C           1.5293240    -0.9610964     6.0534433
H           1.2875425    -0.1832653     6.7724473
C           0.8052018    -1.0541905     4.8655935
H           0.0099704    -0.3444134     4.6556081
C           1.1036264    -2.0544703     3.9311087
C           2.1499079    -2.9475025     4.1955646
H           2.3994536    -3.7129944     3.4658879
C           2.8726807    -2.8545621     5.3841309
H           3.6794266    -3.5553071     5.5806029
28
387_C13H12O2S_4-6-11-12 (45,) energy =   -1051.1825846
C          -1.2034017    -1.9107062    -2.5131396
H          -1.7281085    -2.1277385    -3.4393858
C          -1.9142971    -1.8299739    -1.3134197
H          -2.9898225    -1.9821117    -1.3043681
C          -1.2464145    -1.5485210    -0.1215461
H          -1.8075945    -1.4593320     0.8033630
C           0.1370048    -1.3530082    -0.1446561
C           0.8593213    -1.4493935    -1.3353342
H           1.9366297    -1.3241647    -1.3161285
C           0.1792601    -1.7170790    -2.5237770
H           0.7324366    -1.7844855    -3.4562166
S           1.0619123    -0.9940932     1.3670561
C           0.3956680    -2.1994366     2.5957275
H           0.5000071    -3.1867584     2.1370659
H          -0.6648078    -1.9621631     2.7084235
O           2.4710606    -1.3295327     1.1047243
O           0.6890847     0.3511378     1.8377729
C           2.5374755    -1.8666018     6.3163235
H           3.0773071    -1.7827871     7.2556697
C           1.4247982    -1.0587364     6.0743006
H           1.0979232    -0.3413840     6.8219894
C           0.7299795    -1.1678445     4.8704944
H          -0.1280091    -0.5300342     4.6771067
C           1.1377275    -2.0910023     3.8985805
C           2.2624037    -2.8895771     4.1432232
H           2.5956569    -3.5938690     3.3858357
C           2.9561992    -2.7806895     5.3475912
H           3.8248278    -3.4079395     5.5280198
28
387_C13H12O2S_4-6-11-12 (60,) energy =   -1051.1845596
C          -1.2312555    -1.9156337    -2.4600532
H          -1.7720104    -2.1505337    -3.3726591
C          -1.9377013    -1.6086174    -1.2937285
H          -3.0239156    -1.6008754    -1.2996028
C          -1.2495170    -1.3021426    -0.1205290
H          -1.7926170    -1.0297588     0.7795393
C           0.1479639    -1.3111662    -0.1306028
C           0.8640706    -1.6268936    -1.2853245
H           1.9483316    -1.6364922    -1.2524357
C           0.1647902    -1.9203235    -2.4572972
H           0.7114306    -2.1572519    -3.3656376
S           1.0651972    -0.9465929     1.3804028
C           0.5002134    -2.2605998     2.5474296
H           0.7230831    -3.2104136     2.0529575
H          -0.5836679    -2.1425762     2.6261712
O           2.4936021    -1.1617915     1.0961362
O           0.5838470     0.3406212     1.9100486
C           2.4879087    -1.8703715     6.3474429
H           2.9893972    -1.7725434     7.3064935
C           1.3029681    -1.1736539     6.1027496
H           0.8812019    -0.5285249     6.8685360
C           0.6576462    -1.3012174     4.8734948
H          -0.2575635    -0.7488174     4.6796793
C           1.1875585    -2.1323274     3.8776030
C           2.3832031    -2.8189549     4.1262444
H           2.8096127    -3.4507543     3.3517898
C           3.0278245    -2.6917145     5.3559334
H           3.9524121    -3.2323987     5.5385024
28
387_C13H12O2S_4-6-11-12 (75,) energy =   -1051.1858532
C          -1.2493896    -1.9284321    -2.4438840
H          -1.7873461    -2.1806687    -3.3535692
C          -1.9442908    -1.4110525    -1.3470379
H          -3.0179052    -1.2562896    -1.4053812
C          -1.2590632    -1.0816126    -0.1780957
H          -1.7796920    -0.6482355     0.6703540
C           0.1228176    -1.2805549    -0.1245617
C           0.8285789    -1.7973361    -1.2116970
H           1.9030271    -1.9284209    -1.1378493
C           0.1327893    -2.1167976    -2.3788114
H           0.6705714    -2.5109251    -3.2364403
S           1.0147445    -0.8943423     1.3943810
C           0.5656767    -2.2972689     2.5079905
H           0.8754192    -3.2034342     1.9795555
H          -0.5255910    -2.2772306     2.5765385
O           2.4551594    -0.9824913     1.1028735
O           0.4252311     0.3271805     1.9683603
C           2.4841930    -1.8697390     6.3393211
H           2.9686888    -1.7615438     7.3059523
C           1.2411256    -1.2771416     6.1089320
H           0.7565216    -0.7027400     6.8936281
C           0.6181943    -1.4180084     4.8697015
H          -0.3432226    -0.9459601     4.6875865
C           1.2289932    -2.1586484     3.8489409
C           2.4814805    -2.7407332     4.0840358
H           2.9695108    -3.3010334     3.2911448
C           3.1039446    -2.6001138     5.3236652
H           4.0736440    -3.0592324     5.4951647
28
387_C13H12O2S_4-6-11-12 (90,) energy =   -1051.1862407
C          -1.2721769    -1.5301841    -2.4731970
H          -1.7648493    -1.2486587    -3.3998111
C           0.1031090    -1.3310979    -2.3286904
H           0.6802179    -0.9015840    -3.1426248
C           0.7413153    -1.6933566    -1.1421273
H           1.8123500    -1.5699913    -1.0182144
C          -0.0162351    -2.2512599    -0.1104059
C          -1.3894115    -2.4653107    -0.2449610
H          -1.9442583    -2.9306756     0.5632840
C          -2.0160995    -2.0988477    -1.4363388
H          -3.0827136    -2.2648227    -1.5579968
S           0.7985016    -2.7074144     1.4320461
C           0.6665977    -1.1670828     2.4420534
H          -0.4038279    -0.9512430     2.5055025
H           1.1550651    -0.3878124     1.8500934
O          -0.0209139    -3.7432430     2.0833091
O           2.2239367    -2.9312793     1.1385401
C           2.4899569    -1.7055408     6.3056242
H           2.9500449    -1.8412591     7.2806815
C           3.2445799    -1.2168507     5.2374947
H           4.2945388    -0.9744607     5.3766608
C           2.6535606    -1.0402986     3.9871219
H           3.2445807    -0.6697032     3.1540324
C           1.2996213    -1.3439654     3.7930594
C           0.5516039    -1.8442297     4.8671498
H          -0.4938428    -2.1003042     4.7190076
C           1.1429200    -2.0209038     6.1172777
H           0.5519481    -2.4064337     6.9435045
28
387_C13H12O2S_4-6-11-12 (105,) energy =   -1051.1858770
C          -1.2753109    -1.5604014    -2.4843935
H          -1.7838844    -1.3056820    -3.4101497
C           0.1192867    -1.5224331    -2.4244791
H           0.6956373    -1.2448664    -3.3024496
C           0.7782344    -1.8484785    -1.2379336
H           1.8609305    -1.8386647    -1.1693202
C           0.0219396    -2.2075154    -0.1217719
C          -1.3728880    -2.2700230    -0.1742984
H          -1.9357818    -2.5987516     0.6937891
C          -2.0205873    -1.9355881    -1.3630281
H          -3.1045727    -1.9798758    -1.4182821
S           0.8713878    -2.6554554     1.4050994
C           0.6193786    -1.1714099     2.4736453
H          -0.4644437    -1.0426914     2.5436984
H           1.0446085    -0.3326145     1.9150107
O           0.1343473    -3.7716808     2.0211032
O           2.3084094    -2.7638760     1.1031421
C           2.4812565    -1.7260177     6.3166699
H           2.9511239    -1.8665467     7.2863581
C           3.1952779    -1.1372426     5.2713384
H           4.2237265    -0.8212651     5.4229103
C           2.5916079    -0.9549363     4.0278775
H           3.1518877    -0.5059434     3.2122850
C           1.2647580    -1.3531202     3.8182200
C           0.5582694    -1.9532567     4.8689028
H          -0.4641911    -2.2833335     4.7073885
C           1.1622556    -2.1356020     6.1121443
H           0.6032311    -2.5994916     6.9201165
28
387_C13H12O2S_4-6-11-12 (120,) energy =   -1051.1847521
C          -1.2704355    -1.5897154    -2.5073402
H          -1.7904436    -1.3702071    -3.4357097
C           0.1200012    -1.7133407    -2.5009562
H           0.6825141    -1.5957886    -3.4227884
C           0.7932238    -1.9924192    -1.3102419
H           1.8728651    -2.0933756    -1.2780183
C           0.0568561    -2.1405131    -0.1349144
C          -1.3378382    -2.0487559    -0.1337968
H          -1.9004115    -2.2220270     0.7786655
C          -1.9989354    -1.7584403    -1.3262992
H          -3.0821623    -1.6779688    -1.3370266
S           0.9299747    -2.5865010     1.3802966
C           0.5702844    -1.1726717     2.5100576
H          -0.5192335    -1.1255143     2.5886078
H           0.9310087    -0.2811692     1.9889066
O           0.2754335    -3.7769267     1.9486869
O           2.3714368    -2.5848848     1.0803932
C           2.4825207    -1.7440892     6.3259466
H           2.9650754    -1.8877115     7.2889349
C           3.1413617    -1.0497862     5.3095422
H           4.1394928    -0.6543927     5.4766696
C           2.5212513    -0.8634433     4.0747871
H           3.0391451    -0.3314996     3.2813296
C           1.2324895    -1.3629222     3.8455901
C           0.5821209    -2.0682912     4.8666998
H          -0.4087453    -2.4769218     4.6889147
C           1.2027517    -2.2549493     6.1011198
H           0.6873547    -2.8010362     6.8864050
28
387_C13H12O2S_4-6-11-12 (135,) energy =   -1051.1830024
C          -1.2621573    -1.6189102    -2.5465013
H          -1.7803531    -1.4317199    -3.4828765
C           0.1017478    -1.9160849    -2.5521650
H           0.6457625    -1.9645892    -3.4911414
C           0.7729139    -2.1526284    -1.3517631
H           1.8348050    -2.3736448    -1.3305250
C           0.0649730    -2.0822587    -0.1510346
C          -1.3075855    -1.8183518    -0.1366009
H          -1.8640538    -1.8167015     0.7955261
C          -1.9660544    -1.5701231    -1.3404658
H          -3.0301587    -1.3517841    -1.3374930
S           0.9398620    -2.5300394     1.3651438
C           0.4745451    -1.2003832     2.5563526
H          -0.6112991    -1.2583960     2.6643185
H           0.7394761    -0.2571403     2.0699648