18
377_C8H8O2_0-4-11-9 (-165,) energy =    -460.1098977
C           1.3813729    -1.5211850    -1.0756277
H           2.0732865    -2.2917406    -1.4303057
H           1.2021041    -0.8523298    -1.9239382
H           0.4396146    -1.9715974    -0.7555999
C           1.9594197    -0.7548910     0.0981222
C           5.9729327     0.8427011     0.1921593
H           6.9828999     1.2412979     0.2369519
C           5.2092690     0.7134595     1.3555929
H           5.6176427     1.0080039     2.3175001
C           3.9206570     0.2029344     1.2665161
H           3.2984179     0.0968499     2.1489580
C           3.3567863    -0.1981151     0.0426661
C           4.1449936    -0.0615958    -1.1193015
O           3.6248899    -0.4312019    -2.3288088
H           4.2874394    -0.2599555    -3.0165777
C           5.4424788     0.4606768    -1.0357233
H           6.0335060     0.5652788    -1.9444465
O           1.3018900    -0.6186067     1.1206979
18
377_C8H8O2_0-4-11-9 (-150,) energy =    -460.1088298
C           1.5103602    -1.8278672    -0.4543964
H           1.9805491    -2.1924674     0.4646041
H           1.8550759    -2.4798127    -1.2638740
H           0.4225636    -1.8873434    -0.3780687
C           1.8875781    -0.3854529    -0.7369610
C           5.8570349     1.1394559     0.0013427
H           6.8485806     1.5362571     0.2018911
C           4.7319850     1.9613827     0.1035799
H           4.8361772     3.0039441     0.3881253
C           3.4758742     1.4285699    -0.1637052
H           2.5842874     2.0445079    -0.1054002
C           3.3011639     0.0820079    -0.5217207
C           4.4472857    -0.7328891    -0.6121759
O           4.2972060    -2.0441560    -0.9722649
H           5.1725508    -2.4611193    -1.0036050
C           5.7161372    -0.1977347    -0.3596807
H           6.5930100    -0.8374152    -0.4478701
O           1.0316897     0.4242298    -1.0622089
18
377_C8H8O2_0-4-11-9 (-135,) energy =    -460.1069238
C           1.4862013    -1.8179305    -0.3529226
H           1.7863717    -1.9343024     0.6953332
H           1.9883786    -2.6090348    -0.9174091
H           0.4032507    -1.9220857    -0.4466825
C           1.8885340    -0.4474107    -0.8651743
C           5.8110486     1.1154217     0.0234867
H           6.7912179     1.5170662     0.2657028
C           4.6699173     1.9087572     0.1562907
H           4.7494308     2.9332323     0.5068364
C           3.4269680     1.3718824    -0.1675443
H           2.5261216     1.9724658    -0.0881505
C           3.2881057     0.0486770    -0.6109397
C           4.4483223    -0.7395183    -0.7290702
O           4.3184915    -2.0279033    -1.1744380
H           5.1985534    -2.4326016    -1.2238046
C           5.7023953    -0.1997338    -0.4235444
H           6.5930145    -0.8158826    -0.5372364
O           1.0673206     0.3019113    -1.3691098
18
377_C8H8O2_0-4-11-9 (-120,) energy =    -460.1048587
C           1.4807037    -1.7081002    -0.2363023
H           1.4391671    -1.5063233     0.8422794
H           2.1853808    -2.5305678    -0.3874857
H           0.4853306    -1.9864551    -0.5896312
C           1.9368294    -0.4484795    -0.9477597
C           5.8380691     1.0917909     0.0642860
H           6.8155786     1.4812507     0.3351737
C           4.6929726     1.8668885     0.2526459
H           4.7672922     2.8643452     0.6749577
C           3.4508399     1.3491249    -0.1105301
H           2.5496961     1.9428353     0.0131249
C           3.3250591     0.0629375    -0.6493705
C           4.4868017    -0.7091446    -0.8217083
O           4.3475646    -1.9626233    -1.3582221
H           5.2240577    -2.3693823    -1.4412085
C           5.7380461    -0.1892917    -0.4767427
H           6.6320426    -0.7909295    -0.6329675
O           1.1736619     0.2165859    -1.6258562
18
377_C8H8O2_0-4-11-9 (-105,) energy =    -460.1025280
C           1.4622892    -1.5844940    -0.1082426
H           1.3574471    -1.2038351     0.9159203
H           2.1641084    -2.4247374    -0.0720999
H           0.4898330    -1.9193472    -0.4764833
C           1.9971172    -0.4784326    -0.9962906
C           5.8679933     1.0763342     0.1126163
H           6.8422597     1.4626060     0.3990905
C           4.7162239     1.8264904     0.3499750
H           4.7819821     2.8002532     0.8257398
C           3.4748616     1.3161660    -0.0330026
H           2.5712930     1.8962549     0.1350384
C           3.3658777     0.0662010    -0.6487016
C           4.5310345    -0.6865874    -0.8605568
O           4.3803972    -1.9190610    -1.4420336
H           5.2520597    -2.3322005    -1.5420175
C           5.7792832    -0.1769641    -0.4939359
H           6.6778176    -0.7628660    -0.6804424
O           1.3277807     0.0331986    -1.8733976
18
377_C8H8O2_0-4-11-9 (-90,) energy =    -460.1007625
C           1.3830830    -1.4851078    -0.0472210
H           1.2399278    -0.9544462     0.9023393
H           2.0314338    -2.3449660     0.1622173
H           0.4206003    -1.8292245    -0.4327509
C           2.0539628    -0.5756240    -1.0562410
C           5.8685124     1.0820078     0.1096876
H           6.8327658     1.4938773     0.3942969
C           4.6936327     1.7724872     0.4053817
H           4.7313203     2.7267505     0.9219871
C           3.4639142     1.2276639     0.0288824
H           2.5439842     1.7638116     0.2492348
C           3.3930788     0.0070255    -0.6455556
C           4.5813543    -0.6852215    -0.9210379
O           4.4595871    -1.8981057    -1.5464385
H           5.3427082    -2.2687822    -1.6982290
C           5.8158834    -0.1461956    -0.5504824
H           6.7320341    -0.6892551    -0.7766086
O           1.5430792    -0.2852988    -2.1193114
18
377_C8H8O2_0-4-11-9 (-75,) energy =    -460.1006038
C           1.2745576    -1.3745425    -0.0002989
H           1.1108468    -0.7043875     0.8522914
H           1.8194157    -2.2465300     0.3841163
H           0.3171083    -1.6941724    -0.4179005
C           2.1118511    -0.7021404    -1.0704776
C           5.8643550     1.0915306     0.0889292
H           6.8135265     1.5464123     0.3584897
C           4.6637244     1.7009876     0.4514554
H           4.6648799     2.6374175     1.0009244
C           3.4560724     1.0955824     0.0985729
H           2.5162172     1.5683426     0.3743151
C           3.4279735    -0.1021823    -0.6205431
C           4.6449056    -0.7047322    -0.9797972
O           4.5804603    -1.8910396    -1.6559738
H           5.4801463    -2.1854511    -1.8662558
C           5.8575654    -0.1104961    -0.6189975
H           6.7949447    -0.5904657    -0.8953522
O           1.7669699    -0.6531994    -2.2342613
18
377_C8H8O2_0-4-11-9 (-60,) energy =    -460.1015705
C           1.1925547    -1.2592133     0.0369300
H           1.0145255    -0.4639655     0.7697047
H           1.6341140    -2.1007250     0.5864974
H           0.2474614    -1.5739096    -0.4110161
C           2.1575776    -0.8247133    -1.0524052
C           5.8513277     1.0976699     0.0832367
H           6.7839391     1.5904789     0.3440132
C           4.6326036     1.6297558     0.5032121
H           4.6013067     2.5444160     1.0872661
C           3.4501001     0.9724611     0.1627167
H           2.4975727     1.3867153     0.4836991
C           3.4559820    -0.1987212    -0.6036131
C           4.6944909    -0.7183954    -1.0278966
O           4.6867371    -1.8755852    -1.7488279
H           5.5995183    -2.1089474    -1.9787856
C           5.8838131    -0.0741353    -0.6716162
H           6.8362514    -0.4934839    -0.9918099
O           1.9180148    -1.0024695    -2.2312199
18
377_C8H8O2_0-4-11-9 (-45,) energy =    -460.1024781
C           1.1265576    -1.1337140     0.0629677
H           0.8143474    -0.1939432     0.5327808
H           1.5278991    -1.7709164     0.8605149
H           0.2574219    -1.6140283    -0.3908764
C           2.1853489    -0.9159004    -1.0089763
C           5.8492958     1.0857660     0.0961099
H           6.7731702     1.5968755     0.3528975
C           4.6268515     1.5531782     0.5786629
H           4.5825994     2.4356493     1.2094515
C           3.4589024     0.8723599     0.2399678
H           2.5072675     1.2396430     0.6128967
C           3.4726277    -0.2599366    -0.5870270
C           4.7187404    -0.7140949    -1.0735224
O           4.7454351    -1.8304853    -1.8504112
H           5.6671249    -2.0284157    -2.0792107
C           5.8952045    -0.0436694    -0.7179844
H           6.8504570    -0.4127794    -1.0880455
O           2.0057094    -1.2883832    -2.1539251
18
377_C8H8O2_0-4-11-9 (-30,) energy =    -460.1033895
C           1.0836026    -1.0333708     0.0485939
H           0.6262882    -0.0400264     0.1391548
H           1.4293771    -1.3276180     1.0455795
H           0.3211988    -1.7305750    -0.3039766
C           2.2264905    -1.0252547    -0.9626360
C           5.8415638     1.0805128     0.1106988
H           6.7515119     1.6172987     0.3649725
C           4.6155971     1.4718133     0.6507141
H           4.5546974     2.3191414     1.3266132
C           3.4688076     0.7594622     0.3111014
H           2.5162940     1.0647007     0.7328440
C           3.4989733    -0.3334908    -0.5704705
C           4.7504529    -0.7107898    -1.1138303
O           4.8141455    -1.7797237    -1.9489556
H           5.7430265    -1.9297827    -2.1869063
C           5.9075099    -0.0045600    -0.7582809
H           6.8651068    -0.3133304    -1.1748364
O           2.0958649    -1.5776386    -2.0409294
18
377_C8H8O2_0-4-11-9 (-15,) energy =    -460.1039976
C           1.0319553    -0.8974108     0.0085365
H           0.6382956     0.1235512    -0.0696891
H           1.2788759    -1.0765872     1.0609651
H           0.2550024    -1.5943049    -0.3104096
C           2.2421832    -1.0967847    -0.9019540
C           5.8483278     1.0683682     0.0920349
H           6.7557100     1.6152613     0.3336883
C           4.6347930     1.4118519     0.6906624
H           4.5808325     2.2300795     1.4020344
C           3.4923583     0.6891358     0.3635825
H           2.5523914     0.9598170     0.8324513
C           3.5080274    -0.3728968    -0.5583972
C           4.7498347    -0.7031629    -1.1579964
O           4.8157348    -1.7306541    -2.0410265
H           5.7406709    -1.8369914    -2.3168703
C           5.9031886     0.0194794    -0.8193013
H           6.8502458    -0.2510183    -1.2839650
O           2.1526426    -1.8324457    -1.8706175
18
377_C8H8O2_0-4-11-9 (0,) energy =    -460.1041576
C           1.0030215    -0.8145567    -0.0513680
H           0.7101878     0.2237813    -0.2468560
H           1.1269773    -0.9247253     1.0324244
H           0.2069710    -1.4799415    -0.3894202
C           2.2768235    -1.1924496    -0.8058321
C           5.8463868     1.0822366     0.0775434
H           6.7455776     1.6515474     0.2970580
C           4.6470079     1.3742308     0.7298395
H           4.5961835     2.1724604     1.4637993
C           3.5145208     0.6268239     0.4262670
H           2.5867204     0.8594878     0.9370369
C           3.5255598    -0.4180260    -0.5164354
C           4.7547550    -0.6978899    -1.1678403
O           4.8201764    -1.6941227    -2.0852175
H           5.7306837    -1.7395263    -2.4202554
C           5.8964432     0.0572313    -0.8601553
H           6.8315308    -0.1711662    -1.3695823
O           2.2442234    -2.1049802    -1.6150498
18
377_C8H8O2_0-4-11-9 (15,) energy =    -460.1039976
C           0.9830082    -0.7621937    -0.1419481
H           0.7899586     0.2739097    -0.4417802
H           0.9715329    -0.7968762     0.9544642
H           0.1874981    -1.4078359    -0.5179172
C           2.3080238    -1.2786460    -0.6996187
C           5.8388282     1.0946114     0.0628227
H           6.7307714     1.6841529     0.2570100
C           4.6609722     1.3395611     0.7710960
H           4.6211290     2.1188079     1.5258445
C           3.5352998     0.5705349     0.4955521
H           2.6226173     0.7658493     1.0482788
C           3.5381979    -0.4562357    -0.4656635
C           4.7455723    -0.6914007    -1.1710898
O           4.7904578    -1.6608403    -2.1187157
H           5.6744133    -1.6539512    -2.5205604
C           5.8769771     0.0918634    -0.8998582
H           6.7945899    -0.0973126    -1.4550140
O           2.3329842    -2.3305484    -1.3163853
18
377_C8H8O2_0-4-11-9 (30,) energy =    -460.1033896
C           0.9865332    -0.7256242    -0.2617278
H           0.8642049     0.2687456    -0.7048882
H           0.8562623    -0.6204984     0.8227299
H           0.2136677    -1.3997223    -0.6357996
C           2.3478816    -1.3272474    -0.5988087
C           5.8449553     1.1151817     0.0789175
H           6.7326064     1.7162225     0.2567380
C           4.6931625     1.3127451     0.8418678
H           4.6709254     2.0645618     1.6246793
C           3.5698323     0.5316397     0.5851952
H           2.6745832     0.6874006     1.1789881
C           3.5587563    -0.4619922    -0.4073649
C           4.7386730    -0.6526721    -1.1657920
O           4.7488046    -1.5886746    -2.1496123
H           5.6084841    -1.5541445    -2.5987357
C           5.8638621     0.1455261    -0.9192290
H           6.7607881    -0.0043145    -1.5183332
O           2.4275663    -2.4680736    -1.0196033
18
377_C8H8O2_0-4-11-9 (45,) energy =    -460.1024781
C           0.9884182    -0.7155472    -0.3712870
H           0.8767094     0.0528097    -1.1461005
H           0.8415811    -0.2180505     0.5942596
H           0.2224642    -1.4829427    -0.4997033
C           2.3607384    -1.3655508    -0.4799953
C           5.8588227     1.1045980     0.0820848
H           6.7504760     1.7076144     0.2305905
C           4.7531305     1.2616277     0.9177885
H           4.7725085     1.9818525     1.7298831
C           3.6201355     0.4802975     0.6980457
H           2.7612577     0.6003585     1.3518728
C           3.5633891    -0.4733076    -0.3284469
C           4.6955152    -0.6247707    -1.1597863
O           4.6386772    -1.5247867    -2.1782912
H           5.4740089    -1.4911214    -2.6703681
C           5.8270751     0.1732527    -0.9532822
H           6.6874908     0.0563612    -1.6103236
O           2.4754543    -2.5550365    -0.7121739
18
377_C8H8O2_0-4-11-9 (60,) energy =    -460.1015706
C           1.0173676    -0.7397403    -0.5104031
H           0.9631086    -0.2240325    -1.4779948
H           0.8557041     0.0216278     0.2611269
H           0.2328188    -1.4978138    -0.4584199
C           2.3789820    -1.4003476    -0.3826608
C           5.8685120     1.0952524     0.0930154
H           6.7608633     1.7018959     0.2208527
C           4.8073231     1.2046780     0.9911636
H           4.8639368     1.8901548     1.8311644
C           3.6694261     0.4207789     0.7986398
H           2.8419985     0.4992207     1.4994687
C           3.5733102    -0.4845105    -0.2644543
C           4.6573069    -0.5901484    -1.1576473
O           4.5382136    -1.4546967    -2.2051542
H           5.3551680    -1.4306684    -2.7271887
C           5.7917643     0.2086307    -0.9802640
H           6.6171884     0.1299271    -1.6859413
O           2.5117747    -2.6087404    -0.4099410
18
377_C8H8O2_0-4-11-9 (75,) energy =    -460.1006038
C           1.0674063    -0.7682119    -0.6449603
H           1.1517051    -0.3809455    -1.6686413
H           0.8391388     0.0899333    -0.0012969
H           0.2600181    -1.5023025    -0.5949878
C           2.3824186    -1.4117074    -0.2510996
C           5.8761976     1.1035479     0.0824484
H           6.7684552     1.7175112     0.1687308
C           4.8745435     1.1769397     1.0497467
H           4.9782746     1.8432237     1.9006964
C           3.7345815     0.3820359     0.9151002
H           2.9519267     0.4313056     1.6686846
C           3.5840093    -0.4935205    -0.1634635
C           4.6011160    -0.5578429    -1.1301054
O           4.4073254    -1.4022276    -2.1875345
H           5.1871446    -1.3736489    -2.7632051
C           5.7393344     0.2442662    -1.0079334
H           6.5177481     0.1924963    -1.7674081
O           2.4865027    -2.6017125    -0.0302139
18
377_C8H8O2_0-4-11-9 (90,) energy =    -460.1007626
C           1.1297156    -0.7749015    -0.7407629
H           1.3612337    -0.5295740    -1.7847504
H           0.8525165     0.1642327    -0.2459866
H           0.2965975    -1.4803545    -0.6999061
C           2.3526985    -1.3736515    -0.0762636
C           5.8636729     1.1381729     0.0723222
H           6.7522823     1.7625359     0.1034128
C           4.9402757     1.1755420     1.1166320
H           5.1001263     1.8280008     1.9696606
C           3.8054868     0.3633904     1.0589129
H           3.0849166     0.3814607     1.8730118
C           3.5851995    -0.4909455    -0.0234577
C           4.5131584    -0.5056199    -1.0750287
O           4.2338362    -1.3275543    -2.1349422
H           4.9520715    -1.2669014    -2.7836345
C           5.6523267     0.3016256    -1.0242652
H           6.3692099     0.2759764    -1.8432896
O           2.3502006    -2.4792956     0.4266891
18
377_C8H8O2_0-4-11-9 (105,) energy =    -460.1025281
C           1.2062771    -0.8460506    -0.9011864
H           1.5581089    -0.7336783    -1.9324295
H           0.8830208     0.1451214    -0.5578512
H           0.3638686    -1.5404815    -0.8623706
C           2.3244392    -1.3411629    -0.0052733
C           5.8664898     1.1244350     0.0657043
H           6.7539235     1.7511504     0.0783897
C           4.9942823     1.1175059     1.1542149
H           5.1918511     1.7401614     2.0214800
C           3.8640433     0.2991981     1.1218448
H           3.1831889     0.2751581     1.9686290
C           3.5905546    -0.5121082     0.0171560
C           4.4651304    -0.4776378    -1.0797148
O           4.1484823    -1.2666238    -2.1553662
H           4.8291975    -1.1617320    -2.8380864
C           5.6067793     0.3273264    -1.0494930
H           6.2874281     0.3313415    -1.8992760
O           2.1855679    -2.2863699     0.7473222
18
377_C8H8O2_0-4-11-9 (120,) energy =    -460.1048583
C           1.2277651    -0.9803983    -1.0174031
H           1.6510749    -1.0408782    -2.0238777
H           0.8869767     0.0524955    -0.8665737
H           0.3773510    -1.6586727    -0.9180910
C           2.2637665    -1.3086697     0.0409347
C           5.8609213     1.0723412     0.0926347
H           6.7572003     1.6863094     0.1089475
C           5.0194275     1.0255644     1.2049366
H           5.2493233     1.6039864     2.0945423
C           3.8795089     0.2244168     1.1647816
H           3.2202469     0.1614445     2.0257428
C           3.5537718    -0.5254399     0.0281372
C           4.4058900    -0.4581442    -1.0875801
O           4.0771920    -1.2051515    -2.1886384
H           4.7582174    -1.0820999    -2.8680851
C           5.5607035     0.3290043    -1.0481303
H           6.2221415     0.3576418    -1.9126095
O           2.0213972    -2.0711958     0.9597740
18
377_C8H8O2_0-4-11-9 (135,) energy =    -460.1069236
C           1.2567395    -1.0756011    -1.0839338
H           1.6369218    -1.5997663    -1.9658098
H           1.1421935    -0.0217930    -1.3641791
H           0.2916886    -1.4935534    -0.7899312
C           2.2189266    -1.2097874     0.0818796
C           5.8858645     1.0636175     0.1173643
H           6.7990119     1.6523075     0.1354128
C           5.0794281     0.9754435     1.2536089
H           5.3538373     1.4973849     2.1652145
C           3.9186616     0.2083198     1.2059617
H           3.2823932     0.1106265     2.0801226
C           3.5292090    -0.4678250     0.0407346
C           4.3487193    -0.3585359    -1.0984523
O           3.9778942    -1.0275796    -2.2341930
H           4.6439135    -0.8710187    -2.9216818
C           5.5267880     0.3945346    -1.0508768
H           6.1606097     0.4543925    -1.9343032
O           1.8979236    -1.8079717     1.0962748
18
377_C8H8O2_0-4-11-9 (150,) energy =    -460.1088298
C           1.2912399    -1.1956686    -1.1293209
H           1.6712626    -1.9555197    -1.8202038
H           1.2841198    -0.2479778    -1.6774160
H           0.2805566    -1.4638282    -0.8142425
C           2.1676900    -1.1159198     0.1068721
C           5.9141664     1.0266044     0.1341020
H           6.8494322     1.5794855     0.1549642
C           5.1337375     0.9124593     1.2872052
H           5.4515617     1.3780850     2.2150715
C           3.9441038     0.1948245     1.2330983
H           3.3224054     0.0773763     2.1148024
C           3.4947351    -0.4098232     0.0480251
C           4.2920698    -0.2771370    -1.1063110
O           3.8762584    -0.8706439    -2.2666816
H           4.5358258    -0.7009781    -2.9575172
C           5.4987488     0.4308747    -1.0536685
H           6.1101984     0.5119879    -1.9511223
O           1.7677847    -1.5517937     1.1764539
18
377_C8H8O2_0-4-11-9 (165,) energy =    -460.1098977
C           1.2792437    -1.2938367    -1.1184641
H           1.7602077    -2.0955416    -1.6886269
H           1.2351763    -0.4252310    -1.7831961
H           0.2735595    -1.6018543    -0.8253371
C           2.0639835    -0.9878045     0.1423146
C           5.9162368     0.9689695     0.1683371
H           6.8802645     1.4698936     0.1937423
C           5.1479267     0.8501329     1.3298166
H           5.5049944     1.2590164     2.2700865
C           3.9209156     0.2023981     1.2667231
H           3.3033258     0.0859936     2.1511268
C           3.4176831    -0.3337671     0.0684403
C           4.2075938    -0.2011136    -1.0928199
O           3.7547351    -0.7204742    -2.2740086
H           4.4199632    -0.5552139    -2.9606557
C           5.4498853     0.4440939    -1.0325127
H           6.0489806     0.5306901    -1.9378402
O           1.5792865    -1.2364103     1.2376877
18
377_C8H8O2_0-4-11-9 (180,) energy =    -460.1102181
C           1.3173657    -1.4253425    -1.0858095
H           1.9120759    -2.2205178    -1.5470207
H           1.2027343    -0.6467383    -1.8469668
H           0.3391729    -1.8100144    -0.7906219
C           2.0014667    -0.8812474     0.1525663
C           5.9389311     0.9029586     0.1906184
H           6.9267885     1.3547385     0.2216852
C           5.1774649     0.7808872     1.3564852
H           5.5646900     1.1362215     2.3065313
C           3.9187831     0.1993025     1.2849308
H           3.3009040     0.0885949     2.1697433
C           3.3776826    -0.2746007     0.0762861
C           4.1630582    -0.1417416    -1.0887897
O           3.6755992    -0.5891893    -2.2853141
H           4.3397175    -0.4208803    -2.9723888
C           5.4341787     0.4447957    -1.0214316
H           6.0249911     0.5385216    -1.9315295
O           1.4305471    -0.9333712     1.2336789
