24
147_C7H16N+_7-0-16-18 (-165,) energy =    -330.9131336
C           2.4253297    -0.7349266    -0.6189333
H           1.4672593    -0.8529871    -0.1044200
H           2.5086607     0.3034969    -0.9539772
C           3.6981899    -0.1896508     1.4903008
H           4.5516706    -0.4711171     2.1126065
H           2.7971126    -0.2585715     2.1090818
H           3.8309031     0.8562788     1.1935409
C           3.6102615    -1.1133326     0.2676511
H           4.5395346    -1.0403277    -0.3147465
H           3.5177759    -2.1541306     0.6003550
C           1.5469258    -3.4842526    -3.1127981
H           0.7159494    -4.1925473    -3.0934682
H           2.4028209    -4.0052632    -3.5507117
C           1.8727579    -3.0100246    -1.6899114
H           2.6473596    -3.5829226    -1.1790051
H           0.9867175    -2.9559267    -1.0518335
N           2.3422557    -1.5775295    -1.8753748
H           3.2877280    -1.6171174    -2.2740530
C           1.4210615    -1.0239824    -2.9491788
H           1.8800495    -0.1338021    -3.3832115
H           0.5004523    -0.7343596    -2.4358544
C           1.2114900    -2.1949101    -3.9222398
H           1.8684277    -2.1008221    -4.7907293
H           0.1847630    -2.1947749    -4.2940663
24
147_C7H16N+_7-0-16-18 (-150,) energy =    -330.9120151
C           2.3838331    -0.7821751    -0.5546178
H           1.4998627    -1.0355945     0.0366237
H           2.2998246     0.2634040    -0.8648052
C           3.7429754    -0.1456968     1.4778118
H           4.6852801    -0.3145064     2.0055310
H           2.9265616    -0.3907617     2.1654681
H           3.6805148     0.9211820     1.2378822
C           3.6862391    -1.0095136     0.2110254
H           4.5359759    -0.7618228    -0.4405944
H           3.7838944    -2.0683216     0.4828958
C           1.5148257    -3.4682944    -3.1280522
H           0.6529375    -4.1368209    -3.1807177
H           2.3778774    -4.0265874    -3.5014578
C           1.7479271    -3.0146218    -1.6810918
H           2.4422238    -3.6297630    -1.1065156
H           0.8154561    -2.9069700    -1.1211805
N           2.3148117    -1.6137365    -1.8240728
H           3.2784416    -1.7133402    -2.1644359
C           1.5087844    -1.0034899    -2.9573943
H           2.0498276    -0.1404676    -3.3497228
H           0.5708520    -0.6623855    -2.5112862
C           1.3050258    -2.1594621    -3.9503381
H           2.0247286    -2.0987861    -4.7707271
H           0.3080412    -2.1037936    -4.3922780
24
147_C7H16N+_7-0-16-18 (-135,) energy =    -330.9105684
C           2.3523575    -0.8696128    -0.4662146
H           1.5762876    -1.2695262     0.1909961
H           2.0843981     0.1581226    -0.7250469
C           3.7792739    -0.1073526     1.4767882
H           4.7799866    -0.1502293     1.9145984
H           3.0735615    -0.4990752     2.2170530
H           3.5380128     0.9457729     1.2967571
C           3.7370523    -0.9216652     0.1775903
H           4.4798041    -0.5258835    -0.5290283
H           4.0101250    -1.9645721     0.3869309
C           1.4698344    -3.4584126    -3.1437630
H           0.5665592    -4.0598857    -3.2657663
H           2.3131545    -4.0753500    -3.4662525
C           1.6333236    -3.0376090    -1.6775574
H           2.2462304    -3.7020774    -1.0656253
H           0.6740101    -2.8749656    -1.1800476
N           2.3001486    -1.6760366    -1.7591787
H           3.2728894    -1.8378220    -2.0442834
C           1.6094825    -1.0015877    -2.9316775
H           2.2229292    -0.1637608    -3.2685520
H           0.6625891    -0.6167803    -2.5443385
C           1.4133974    -2.1284119    -3.9580418
H           2.2001554    -2.1051690    -4.7165475
H           0.4615233    -2.0017432    -4.4779861
24
147_C7H16N+_7-0-16-18 (-120,) energy =    -330.9098568
C           2.3404941    -0.9806551    -0.3935082
H           1.7167428    -1.5234798     0.3208230
H           1.8789713    -0.0076191    -0.5785375
C           3.8158668    -0.0551033     1.4401001
H           4.8490108     0.0461115     1.7826129
H           3.2526818    -0.5718632     2.2245298
H           3.4010704     0.9522770     1.3271514
C           3.7726813    -0.8298892     0.1171240
H           4.3761640    -0.3060899    -0.6368153
H           4.2174128    -1.8245833     0.2577078
C           1.3806734    -3.4465194    -3.1646229
H           0.4255579    -3.9468556    -3.3375792
H           2.1682668    -4.1449930    -3.4598724
C           1.5171867    -3.0626604    -1.6844122
H           2.0519376    -3.7818451    -1.0608595
H           0.5539032    -2.8348108    -1.2213182
N           2.2900439    -1.7554402    -1.7089596
H           3.2587861    -1.9864900    -1.9568243
C           1.6962842    -1.0163437    -2.8958958
H           2.3648063    -0.2008316    -3.1787499
H           0.7488267    -0.5978107    -2.5473016
C           1.5016929    -2.1076880    -3.9574930
H           2.3525926    -2.1385042    -4.6434091
H           0.6131692    -1.8975338    -4.5565458
24
147_C7H16N+_7-0-16-18 (-105,) energy =    -330.9104309
C           2.3572636    -1.1171399    -0.3431498
H           1.9177438    -1.7915563     0.3962802
H           1.7041092    -0.2468825    -0.4429592
C           3.7969064     0.0104729     1.4032400
H           4.8231193     0.2709951     1.6751933
H           3.3859335    -0.6111040     2.2060123
H           3.2174195     0.9386985     1.3575087
C           3.7790389    -0.7273654     0.0586142
H           4.2223997    -0.0898019    -0.7179893
H           4.3964608    -1.6337249     0.1279028
C           1.2978649    -3.4198766    -3.2153092
H           0.2723611    -3.7403791    -3.4109957
H           1.9555887    -4.2350259    -3.5265065
C           1.4715208    -3.1061174    -1.7184372
H           1.9631890    -3.8846805    -1.1320032
H           0.5286434    -2.8401441    -1.2346186
N           2.3296030    -1.8502295    -1.6805510
H           3.2930744    -2.1346247    -1.8901029
C           1.8282032    -1.0487357    -2.8691344
H           2.5394107    -0.2512017    -3.0932221
H           0.8785194    -0.6071293    -2.5566340
C           1.6519842    -2.1008302    -3.9668194
H           2.5766951    -2.2158492    -4.5402824
H           0.8735896    -1.7961925    -4.6695893
24
147_C7H16N+_7-0-16-18 (-90,) energy =    -330.9118948
C           2.3839127    -1.2353766    -0.2966934
H           2.1248277    -1.9890102     0.4525159
H           1.5906143    -0.4836147    -0.3146266
C           3.7692575     0.0603435     1.3728399
H           4.7613318     0.4724258     1.5750834
H           3.5274342    -0.6401633     2.1794015
H           3.0508129     0.8861784     1.4092490
C           3.7556463    -0.6337371     0.0046360
H           4.0312175     0.0863479    -0.7765563
H           4.5102827    -1.4326050    -0.0093770
C           1.2222808    -3.3839947    -3.2327594
H           0.1772093    -3.6074884    -3.4574979
H           1.8115016    -4.2501380    -3.5434372
C           1.3883731    -3.1122797    -1.7269485
H           1.7960778    -3.9413507    -1.1455426
H           0.4619427    -2.7725876    -1.2571977
N           2.3519566    -1.9374000    -1.6440909
H           3.2956983    -2.2987358    -1.8238367
C           1.9575547    -1.0764349    -2.8318759
H           2.7430425    -0.3446009    -3.0282978
H           1.0447324    -0.5540311    -2.5344311
C           1.7126031    -2.0913271    -3.9516417
H           2.6361452    -2.2809181    -4.5067880
H           0.9820707    -1.7049181    -4.6655441
24
147_C7H16N+_7-0-16-18 (-75,) energy =    -330.9130949
C           2.3998080    -1.3257215    -0.2914714
H           2.3103084    -2.1232126     0.4525303
H           1.5065625    -0.6975108    -0.2294035
C           3.7255451     0.0815389     1.3302303
H           4.6525086     0.6440322     1.4689948
H           3.6842914    -0.6918418     2.1047194
H           2.8898283     0.7712396     1.4898308
C           3.6861481    -0.5303851    -0.0768040
H           3.7689435     0.2664464    -0.8256889
H           4.5516796    -1.1940859    -0.2124165
C           1.1253046    -3.3241528    -3.2757784
H           0.0661403    -3.4362321    -3.5170895
H           1.6272524    -4.2413159    -3.5928628
C           1.2955835    -3.0932374    -1.7630215
H           1.6265764    -3.9638416    -1.1938534
H           0.3939525    -2.6885305    -1.2966576
N           2.3513424    -2.0042484    -1.6454515
H           3.2671560    -2.4412986    -1.8013122
C           2.0728219    -1.1002580    -2.8337864
H           2.9330418    -0.4531633    -3.0095619
H           1.2123031    -0.4875563    -2.5517946
C           1.7527461    -2.0781401    -3.9682205
H           2.6652173    -2.3501748    -4.5071607
H           1.0777225    -1.6167294    -4.6921453
24
147_C7H16N+_7-0-16-18 (-60,) energy =    -330.9130973
C           2.4478313    -1.4116836    -0.2471917
H           2.5228276    -2.2255422     0.4805762
H           1.4880776    -0.9075301    -0.0983055
C           3.7137194     0.1061884     1.3162013
H           4.5518366     0.8033348     1.3967188
H           3.8756846    -0.6973923     2.0425529
H           2.8033760     0.6454591     1.5993918
C           3.6192541    -0.4404613    -0.1152482
H           3.4995651     0.3922777    -0.8174673
H           4.5564214    -0.9524007    -0.3751616
C           1.0734843    -3.2824155    -3.2701978
H           0.0132894    -3.3044935    -3.5312283
H           1.5029341    -4.2363069    -3.5853249
C           1.2335494    -3.0764444    -1.7525075
H           1.4860476    -3.9745148    -1.1858340
H           0.3570893    -2.6076537    -1.2989069
N           2.3675090    -2.0729344    -1.6077077
H           3.2487477    -2.5807427    -1.7481371
C           2.2000076    -1.1458176    -2.7982247
H           3.1211292    -0.5843282    -2.9552869
H           1.3958426    -0.4532657    -2.5337243
C           1.8154237    -2.0896270    -3.9423012
H           2.7109614    -2.4359788    -4.4668845
H           1.1953079    -1.5696220    -4.6755211
24
147_C7H16N+_7-0-16-18 (-45,) energy =    -330.9116042
C           2.5220076    -1.4891052    -0.2108463
H           2.7629675    -2.3091209     0.4719555
H           1.5275300    -1.1131034     0.0486657
C           3.7024263     0.1354009     1.3045673
H           4.4352937     0.9454104     1.3464288
H           4.0442996    -0.6602237     1.9750819
H           2.7537186     0.5241044     1.6902778
C           3.5572770    -0.3681665    -0.1386856
H           3.2564614     0.4619797    -0.7868431
H           4.5298893    -0.7289028    -0.5004458
C           1.0441042    -3.2234258    -3.2787300
H          -0.0079827    -3.1709560    -3.5668416
H           1.4130652    -4.2056125    -3.5834143
C           1.1784999    -3.0265685    -1.7572916
H           1.3425222    -3.9399269    -1.1824919
H           0.3302212    -2.4873268    -1.3294565
N           2.3838821    -2.1165560    -1.5874029
H           3.2201753    -2.6940351    -1.7327834
C           2.3158004    -1.1741311    -2.7759503
H           3.2818181    -0.6874457    -2.9089316
H           1.5619836    -0.4207849    -2.5304225
C           1.8851059    -2.0856935    -3.9305851
H           2.7631096    -2.4952839    -4.4390526
H           1.3191125    -1.5202462    -4.6738236
24
147_C7H16N+_7-0-16-18 (-30,) energy =    -330.9089816
C           2.6070182    -1.5749929    -0.1956594
H           3.0251798    -2.3793257     0.4155398
H           1.6073613    -1.3482553     0.1867066
C           3.6572965     0.1542061     1.2922827
H           4.2709409     1.0585715     1.3161019
H           4.1565637    -0.6046658     1.9041483
H           2.6951420     0.3915938     1.7590817
C           3.4771133    -0.3195034    -0.1573828
H           3.0120371     0.4775467    -0.7468706
H           4.4610423    -0.5231931    -0.5996768
C           0.9925418    -3.1839660    -3.2796476
H          -0.0484254    -3.0541102    -3.5832973
H           1.2886593    -4.1953391    -3.5679771
C           1.1217588    -2.9779028    -1.7590165
H           1.2010356    -3.8929692    -1.1690944
H           0.3166004    -2.3624367    -1.3512204
N           2.3961974    -2.1687432    -1.5870642
H           3.1776763    -2.8142083    -1.7470292
C           2.4050168    -1.2289530    -2.7806741
H           3.4024351    -0.8074138    -2.9035296
H           1.6979318    -0.4268565    -2.5542048
C           1.9279793    -2.1217281    -3.9315978
H           2.7815489    -2.6033876    -4.4183548
H           1.4191144    -1.5262841    -4.6924728
24
147_C7H16N+_7-0-16-18 (-15,) energy =    -330.9064073
C           2.6983192    -1.6364481    -0.1918612
H           3.2959352    -2.3879445     0.3301982
H           1.7251130    -1.5828676     0.3033506
C           3.6102156     0.1642868     1.2966550
H           4.0853991     1.1484645     1.3218615
H           4.2667692    -0.5372035     1.8224863
H           2.6687661     0.2340673     1.8523757
C           3.3747204    -0.2663964    -0.1587453
H           2.7481535     0.4779516    -0.6612838
H           4.3346560    -0.3001561    -0.6883391
C           0.9340836    -3.1191026    -3.2701658
H          -0.0902735    -2.8975894    -3.5773368
H           1.1350706    -4.1578208    -3.5429099
C           1.0824475    -2.9022051    -1.7532754
H           1.0784278    -3.8111580    -1.1487388
H           0.3380430    -2.2086257    -1.3553438
N           2.4265158    -2.2097419    -1.5915233
H           3.1424032    -2.9253710    -1.7540436
C           2.5082360    -1.2879348    -2.7977937
H           3.5351078    -0.9453978    -2.9254607
H           1.8643118    -0.4318303    -2.5863286
C           1.9644884    -2.1580527    -3.9355762
H           2.7759325    -2.7236352    -4.4040456
H           1.5167493    -1.5357248    -4.7131998
24
147_C7H16N+_7-0-16-18 (0,) energy =    -330.9053262
C           2.7824306    -1.6918090    -0.1995125
H           3.5516472    -2.3434528     0.2226879
H           1.8736023    -1.8258681     0.3918866
C           3.5559641     0.1708978     1.2879204
H           3.8766111     1.2154836     1.3205943
H           4.3624366    -0.4394671     1.7084342
H           2.6780156     0.0710667     1.9353374
C           3.2385154    -0.2340946    -0.1594767
H           2.4557508     0.4230483    -0.5547834
H           4.1302026    -0.0958832    -0.7815066
C           0.8791832    -3.0416881    -3.2579423
H          -0.1204092    -2.7255760    -3.5639385
H           0.9762496    -4.0990642    -3.5154708
C           1.0585987    -2.8173718    -1.7464258
H           0.9661237    -3.7116437    -1.1272598
H           0.3909878    -2.0454753    -1.3559471
N           2.4679497    -2.2618918    -1.5969493
H           3.1077576    -3.0480853    -1.7454888
C           2.6250756    -1.3676641    -2.8175450
H           3.6789877    -1.1254211    -2.9584294
H           2.0678174    -0.4525692    -2.6125450
C           1.9945279    -2.1959056    -3.9412719
H           2.7445036    -2.8442779    -4.4047820
H           1.6059630    -1.5430306    -4.7257064
24
147_C7H16N+_7-0-16-18 (15,) energy =    -330.9062843
C           2.8845693    -1.7424932    -0.2219065
H           3.7936683    -2.2682642     0.0828176
H           2.0819066    -2.0485973     0.4531351
C           3.4833840     0.1797206     1.2704397
H           3.6502425     1.2591340     1.3153427
H           4.4010820    -0.3143375     1.6074450
H           2.6836801    -0.0643653     1.9779802
C           3.1150724    -0.2340981    -0.1623852
H           2.2127532     0.3067024    -0.4734055
H           3.9225674     0.0524200    -0.8450067
C           0.8298216    -2.9341458    -3.2388762
H          -0.1351019    -2.5172432    -3.5352714
H           0.8118414    -3.9979495    -3.4875237
C           1.0538509    -2.7194727    -1.7320757
H           0.8811998    -3.5968519    -1.1060538
H           0.4740910    -1.8820823    -1.3360125
N           2.5156920    -2.3091282    -1.6039748
H           3.0727610    -3.1582072    -1.7386623
C           2.7404788    -1.4455802    -2.8352856
H           3.8114363    -1.3052039    -2.9913908
H           2.2756922    -0.4807529    -2.6310313
C           2.0186826    -2.2166887    -3.9439079
H           2.6929138    -2.9440977    -4.4064011
H           1.6915853    -1.5355063    -4.7323513
24
147_C7H16N+_7-0-16-18 (30,) energy =    -330.9082896
C           3.0217358    -1.7812990    -0.2907763
H           4.0332355    -2.1598316    -0.1165661
H           2.3624060    -2.2345455     0.4542012
C           3.3924917     0.1828440     1.2246733
H           3.4030377     1.2741433     1.2871905
H           4.3888992    -0.1765716     1.5036592
H           2.6753233    -0.1880854     1.9646782
C           3.0139993    -0.2576238    -0.1975877
H           2.0220714     0.1402093    -0.4481246
H           3.7276795     0.1663437    -0.9122029
C           0.7926731    -2.8197487    -3.2316008
H          -0.0899584    -2.2310565    -3.4913429
H           0.5792457    -3.8576729    -3.4962194
C           1.0933851    -2.6727990    -1.7257006
H           0.8955918    -3.5622536    -1.1248319
H           0.5785657    -1.8215748    -1.2749847
N           2.5839391    -2.3580549    -1.6401297
H           3.0802110    -3.2468534    -1.7580835
C           2.8469485    -1.5430183    -2.8948485
H           3.9233578    -1.4726454    -3.0643643
H           2.4414385    -0.5468005    -2.7154189
C           2.0623619    -2.3017638    -3.9644695
H           2.6567168    -3.1349993    -4.3539901
H           1.8264648    -1.6515692    -4.8096114
24
147_C7H16N+_7-0-16-18 (45,) energy =    -330.9098500
C           3.1698500    -2.0339380    -0.2923839
H           4.2402142    -2.2354943    -0.1873775
H           2.6488271    -2.5528687     0.5176726
C           3.2542709     0.0305712     1.1330852
H           3.0847281     1.1102821     1.1529994
H           4.3058225    -0.1459960     1.3837504
H           2.6354402    -0.4205718     1.9160466
C           2.9054552    -0.5305862    -0.2540752
H           1.8531190    -0.3152191    -0.4783064
H           3.5111137    -0.0222000    -1.0120693
C           0.9654414    -3.2466575    -3.1797744
H           0.1645274    -2.5798156    -3.5074393
H           0.6410965    -4.2690648    -3.3844577
C           1.2400660    -3.0297070    -1.6744487
H           1.0198687    -3.8885098    -1.0378496
H           0.7244130    -2.1554729    -1.2746313
N           2.7356105    -2.7385143    -1.5735997
H           3.2088503    -3.6479539    -1.5745131
C           3.0810222    -2.0782783    -2.8962084
H           4.1656013    -2.0725317    -3.0243556
H           2.7143989    -1.0520463    -2.8458696
C           2.2997163    -2.9191435    -3.9031074
H           2.8518750    -3.8341529    -4.1442415
H           2.1492264    -2.3763262    -4.8387335
24
147_C7H16N+_7-0-16-18 (60,) energy =    -330.9101486
C           3.2277173    -2.0354682    -0.2739441
H           4.3164696    -2.1459366    -0.2814226
H           2.8336455    -2.6339022     0.5532981
C           3.3714789    -0.0178083     1.2085433
H           3.0939502     1.0338834     1.3171617
H           4.4638762    -0.0814997     1.2561988
H           2.9589802    -0.5625545     2.0645293
C           2.8329057    -0.5681135    -0.1217255
H           1.7430153    -0.4557946    -0.1419777
H           3.2390921     0.0267868    -0.9473765
C           1.0534619    -3.3052546    -3.1733189
H           0.1848346    -2.8042097    -3.6056244
H           0.8724556    -4.3806806    -3.2426359
C           1.2359608    -2.8685108    -1.7079117
H           0.8662955    -3.5753056    -0.9625487
H           0.8047731    -1.8863662    -1.5112689
N           2.7398104    -2.7245149    -1.5419613
H           3.1176936    -3.6777247    -1.5019681
C           3.2006467    -2.1427856    -2.8662241
H           4.2833204    -2.2574320    -2.9492335
H           2.9511229    -1.0808692    -2.8469257
C           2.3769421    -2.9171642    -3.9014472
H           2.9158626    -3.8109551    -4.2293860
H           2.2019671    -2.3043020    -4.7880640
24
147_C7H16N+_7-0-16-18 (75,) energy =    -330.9101113
C           3.1803664    -2.1498791    -0.3068405
H           4.2700747    -2.1757455    -0.4032250
H           2.9052929    -2.7426494     0.5708313
C           3.3793376    -0.0132117     0.9963567
H           2.9963758     1.0045806     1.1074971
H           4.4595498     0.0515541     0.8275940
H           3.2117443    -0.5373006     1.9434568
C           2.6685084    -0.7178996    -0.1694719
H           1.5885418    -0.7186376     0.0141024
H           2.8414764    -0.1532885    -1.0940029
C           1.0223687    -3.5589459    -3.1177414
H           0.0522210    -3.3406103    -3.5693906
H           1.1117243    -4.6490710    -3.0490704
C           1.1464050    -2.9284118    -1.7333899
H           0.6678897    -3.4740667    -0.9173098
H           0.8112251    -1.8900370    -1.7244150
N           2.6480351    -2.9174860    -1.5112255
H           2.9128116    -3.8954744    -1.3550653
C           3.2513362    -2.5278985    -2.8610721
H           4.2167086    -3.0292007    -2.9503375
H           3.4175543    -1.4505929    -2.8380870
C           2.2025222    -2.9492348    -3.9165158
H           2.6170693    -3.6627371    -4.6315727
H           1.8770735    -2.0725278    -4.4818657
24
147_C7H16N+_7-0-16-18 (90,) energy =    -330.9087785
C           3.2635700    -1.8860073    -0.4638152
H           4.3294753    -1.8018334    -0.6922339
H           3.1503135    -2.6027392     0.3549831
C           3.4399693     0.0643819     1.1081650
H           2.9968345     1.0206852     1.3981246
H           4.4878937     0.2464072     0.8468342
H           3.4151748    -0.5933475     1.9837693
C           2.6617292    -0.5395346    -0.0702109
H           1.6117481    -0.6679691     0.2145538
H           2.6879267     0.1563199    -0.9189847
C           0.9534119    -2.9729742    -3.3127856
H           0.0210458    -2.6302727    -3.7666523
H           0.9081254    -4.0666546    -3.2632741
C           1.1365692    -2.3851949    -1.9148172
H           0.5942218    -2.8913212    -1.1135096
H           0.9159287    -1.3170930    -1.8870580
N           2.6278718    -2.5427424    -1.6892607
H           2.7835781    -3.5497838    -1.5788420
C           3.2722117    -2.1717833    -3.0241843
H           4.2037279    -2.7333398    -3.1127358
H           3.5067600    -1.1068181    -2.9733895
C           2.2068246    -2.4987038    -4.0954699
H           2.5584757    -3.2624059    -4.7921538
H           1.9855689    -1.6022621    -4.6795906
24
147_C7H16N+_7-0-16-18 (105,) energy =    -330.9066893
C           3.0522707    -0.6445116    -0.9511653
H           2.4107255     0.2399845    -0.9591668
H           4.0678760    -0.3228251    -1.1979323
C           3.5147581    -0.3495167     1.4962629
H           3.5136087    -0.8423660     2.4720158
H           2.8574670     0.5241253     1.5623232
H           4.5335553     0.0027173     1.3015897
C           3.0421062    -1.3304018     0.4128031
H           3.7006920    -2.2057381     0.3992748
H           2.0321361    -1.6822616     0.6582496
C           1.8806509    -3.4868409    -3.2550338
H           1.4651150    -4.4883419    -3.1246094
H           2.5797179    -3.5342179    -4.0968183
C           2.6046826    -3.0267202    -1.9895576
H           3.6354980    -3.3712703    -1.8899108
H           2.0500209    -3.2706159    -1.0824241
N           2.5886237    -1.5150088    -2.1295680
H           3.2255732    -1.3057635    -2.9042968
C           1.1905824    -1.1936811    -2.6462268
H           1.2346650    -0.2434405    -3.1811307
H           0.5589129    -1.0720274    -1.7633238
C           0.7848738    -2.4120039    -3.5028759
H           0.7179081    -2.1520833    -4.5614842
H          -0.2004072    -2.7681374    -3.1937935
24
147_C7H16N+_7-0-16-18 (120,) energy =    -330.9053700
C           2.9125925    -0.5885269    -0.9006848
H           2.1106130     0.1476555    -0.8085127
H           3.8179376    -0.0559556    -1.2032360
C           3.5500525    -0.2914824     1.5046438
H           3.6974142    -0.8007967     2.4606294
H           2.7794807     0.4734609     1.6495809
H           4.4877991     0.2120884     1.2462039
C           3.1410117    -1.3077142     0.4277148
H           3.9269091    -2.0639608     0.3214930
H           2.2279502    -1.8235984     0.7464180
C           1.8437724    -3.4866535    -3.2100040
H           1.3197966    -4.4303598    -3.0443290
H           2.6111899    -3.6738262    -3.9674630
C           2.4854916    -2.9939136    -1.9093811
H           3.4922068    -3.3685262    -1.7204479
H           1.8586409    -3.1852655    -1.0375030
N           2.5322372    -1.4849098    -2.0955707
H           3.2348237    -1.3178892    -2.8221648
C           1.1832538    -1.1609017    -2.7213398
H           1.2462334    -0.1838493    -3.2040008
H           0.4754676    -1.1007623    -1.8909240
C           0.8890966    -2.3420286    -3.6626993
H           1.0706850    -2.0711180    -4.7055045
H          -0.1616986    -2.6284943    -3.5821983
24
147_C7H16N+_7-0-16-18 (135,) energy =    -330.9060746
C           2.7955989    -0.5547459    -0.8392954
H           1.8752331     0.0017303    -0.6443945
H           3.5503231     0.1611350    -1.1747515
C           3.5485139    -0.2500230     1.5321615
H           3.8644838    -0.7640234     2.4437576
H           2.6638506     0.3481928     1.7761772
H           4.3527436     0.4327590     1.2377353
C           3.2481438    -1.2765929     0.4296639
H           4.1470810    -1.8727258     0.2318892
H           2.4682476    -1.9625388     0.7765683
C           1.7970734    -3.4614889    -3.1668759
H           1.1730269    -4.3424101    -3.0021385
H           2.6078144    -3.7627465    -3.8365808
C           2.3581356    -2.9520884    -1.8335241
H           3.3244158    -3.3685517    -1.5484070
H           1.6525993    -3.0828791    -1.0114300
N           2.4959787    -1.4510980    -2.0528265
H           3.2670923    -1.3312843    -2.7170749
C           1.2103990    -1.1026071    -2.7884563
H           1.3174469    -0.1180593    -3.2481510
H           0.4343222    -1.0543453    -2.0208144
C           0.9978888    -2.2659570    -3.7674298
H           1.3659567    -2.0113744    -4.7646761
H          -0.0677701    -2.4845914    -3.8637692
24
147_C7H16N+_7-0-16-18 (150,) energy =    -330.9086004
C           2.6951917    -0.5657404    -0.7861927
H           1.7069573    -0.2007456    -0.4923594
H           3.2762182     0.2903157    -1.1397622
C           3.5950883    -0.2476929     1.5357146
H           4.0627880    -0.7457701     2.3890572
H           2.6505837     0.1873630     1.8803305
H           4.2541286     0.5692759     1.2230973
C           3.3688830    -1.2558450     0.3994608
H           4.3323792    -1.6845372     0.0948278
H           2.7444954    -2.0790208     0.7615747
C           1.7349731    -3.4630560    -3.1151951
H           1.0428224    -4.2938818    -2.9627761
H           2.5665097    -3.8432256    -3.7152975
C           2.2375551    -2.9381141    -1.7637858
H           3.1613720    -3.3923162    -1.4055012
H           1.4764853    -3.0074164    -0.9832714
N           2.4630923    -1.4525762    -2.0098045
H           3.2902173    -1.3773505    -2.6113913
C           1.2470223    -1.0697166    -2.8409319
H           1.4227645    -0.0990614    -3.3091472
H           0.4210474    -0.9785367    -2.1318468
C           1.0599813    -2.2434681    -3.8115148
H           1.5304763    -2.0330276    -4.7755353
H          -0.0029814    -2.4075292    -4.0010122
24
147_C7H16N+_7-0-16-18 (165,) energy =    -330.9114014
C           2.5963455    -0.6091525    -0.7282627
H           1.5809426    -0.4319644    -0.3611646
H           3.0020697     0.3454810    -1.0758284
C           3.6398129    -0.2393248     1.5302088
H           4.2498840    -0.6918553     2.3163403
H           2.6759890     0.0348835     1.9727575
H           4.1405584     0.6787340     1.2047807
C           3.4631941    -1.2269075     0.3677364
H           4.4481974    -1.4965026    -0.0369099
H           3.0004450    -2.1478212     0.7381561
C           1.6924392    -3.4724397    -3.0937477
H           0.9450522    -4.2588819    -2.9691434
H           2.5344932    -3.9125576    -3.6350957
C           2.1449836    -2.9498717    -1.7234045
H           3.0306336    -3.4369548    -1.3154870
H           1.3450705    -2.9772836    -0.9787643
N           2.4430461    -1.4775850    -1.9662351
H           3.3228683    -1.4301832    -2.4922276
C           1.3161321    -1.0491266    -2.8940682
H           1.5827273    -0.1020763    -3.3674900
H           0.4457328    -0.8929513    -2.2525702
C           1.1331828    -2.2329439    -3.8536005
H           1.6787961    -2.0676894    -4.7863095
H           0.0783535    -2.3447629    -4.1134104
24
147_C7H16N+_7-0-16-18 (180,) energy =    -330.9130445
C           2.5025107    -0.6671394    -0.6630854
H           1.5003975    -0.6494568    -0.2239695
H           2.7430033     0.3437321    -1.0063579
C           3.6786268    -0.2090901     1.5175781
H           4.4177232    -0.5881990     2.2281834
H           2.7297868    -0.0950828     2.0528389
H           4.0078193     0.7825525     1.1892221
C           3.5419417    -1.1766362     0.3334745
H           4.5145558    -1.2844851    -0.1665692
H           3.2556765    -2.1679906     0.7024059
C           1.6205201    -3.4767575    -3.0871626
H           0.8251387    -4.2207592    -3.0069407
H           2.4673455    -3.9637703    -3.5784105
C           2.0200041    -2.9762499    -1.6918894
H           2.8586348    -3.5042296    -1.2376798
H           1.1804383    -2.9667333    -0.9914640
N           2.3971873    -1.5199031    -1.9108783
H           3.3152221    -1.5084251    -2.3702331
C           1.3679988    -1.0308806    -2.9172142
H           1.7301612    -0.1092741    -3.3768043