37
125_C17H19N_8-7-19-16 (-165,) energy =    -714.0003569
C           5.1428706     1.6918334     2.3491570
H           5.8136236     2.4755099     2.6923111
C           5.3692587     0.3599592     2.7014060
H           6.2208484     0.0795088     3.3143430
C           4.4918055    -0.6065633     2.2278127
H           4.6817316    -1.6549011     2.4432323
C           3.3887794    -0.2988622     1.4069264
C           3.1090937     1.0663942     1.1211554
C           4.0373691     2.0294576     1.5822080
H           3.8348744     3.0790712     1.3951459
C          -0.3020833     2.6937917    -1.0049959
H          -0.2833036     2.2005499    -1.9882882
H          -1.1623035     3.3744420    -1.0108341
C          -0.4562720     1.6301451     0.0891831
H          -1.3338682     1.0003146    -0.1052424
H          -0.6114532     2.1166734     1.0610385
C           0.7898442     0.7359349     0.1791233
H           0.6705299     0.0224706     0.9956204
H           0.8873232     0.1521454    -0.7513200
N           1.9753329     1.5562432     0.4302771
C           2.1910777     2.5113663    -0.6690599
H           2.3238796     1.9588747    -1.6198017
H           3.1128553     3.0676823    -0.4998709
C           1.0055642     3.4718482    -0.8089454
H           0.9410122     4.0871885     0.0981837
H           1.1850439     4.1498775    -1.6533432
C           1.4980029    -3.7959914    -0.2682998
H           1.0420295    -4.6882539    -0.6889252
C           1.4779520    -3.5785370     1.1103911
H           1.0030767    -4.3009893     1.7693829
C           2.0660096    -2.4332963     1.6490835
H           2.0453528    -2.2669399     2.7231310
C           2.6771341    -1.4772817     0.8219273
C           2.7014805    -1.7165849    -0.5618167
H           3.1993374    -1.0032877    -1.2135071
C           2.1154105    -2.8615287    -1.1021749
H           2.1496072    -3.0283126    -2.1758717
37
125_C17H19N_8-7-19-16 (-150,) energy =    -714.0027146
C           5.0568189     1.7335083     2.4392753
H           5.6914909     2.5308848     2.8176284
C           5.2958489     0.4058200     2.8024264
H           6.1241910     0.1469780     3.4556449
C           4.4664985    -0.5863170     2.2934396
H           4.6724668    -1.6285122     2.5235471
C           3.3982654    -0.3030183     1.4209370
C           3.1108947     1.0535109     1.1139515
C           3.9783858     2.0449822     1.6226432
H           3.7529593     3.0859304     1.4094688
C          -0.2842258     2.7011092    -0.9633219
H          -0.3773888     2.1194465    -1.8926671
H          -1.0905337     3.4447945    -0.9757712
C          -0.4350048     1.7582509     0.2383991
H          -1.3773613     1.1990120     0.1739871
H          -0.4636283     2.3435542     1.1669587
C           0.7362162     0.7663134     0.3127652
H           0.6497216     0.1476229     1.2086825
H           0.6890099     0.0867863    -0.5550544
N           2.0003298     1.4948683     0.3631793
C           2.2113252     2.3583893    -0.8004275
H           2.2498176     1.7448437    -1.7226227
H           3.1812233     2.8519108    -0.7102450
C           1.0868149     3.3916932    -0.9377222
H           1.1364340     4.0846841    -0.0871889
H           1.2414428     3.9811340    -1.8508035
C           1.5449273    -3.7606599    -0.3684328
H           1.0967608    -4.6417127    -0.8199467
C           1.5785503    -3.6205459     1.0198591
H           1.1520746    -4.3919589     1.6560558
C           2.1563740    -2.4893433     1.5974412
H           2.1737614    -2.3827203     2.6790953
C           2.7070043    -1.4717144     0.8015925
C           2.6723912    -1.6304990    -0.5938771
H           3.1177560    -0.8659197    -1.2248104
C           2.0963909    -2.7611850    -1.1728918
H           2.0866600    -2.8659038    -2.2549020
37
125_C17H19N_8-7-19-16 (-135,) energy =    -714.0037719
C           5.6661170     0.7956399    -0.4475557
H           6.4746538     1.1746600    -1.0677943
C           5.9346729     0.2309439     0.7972225
H           6.9527020     0.1492377     1.1665942
C           4.8698107    -0.2595393     1.5496253
H           5.0682133    -0.7611694     2.4932011
C           3.5405448    -0.2011066     1.1039212
C           3.2600861     0.4466869    -0.1356267
C           4.3539891     0.9043138    -0.8998321
H           4.1709153     1.4018361    -1.8458941
C           0.2286760     2.7412060    -1.5803161
H          -0.6979819     2.2141577    -1.8539897
H           0.0570891     3.8043558    -1.7890284
C           0.5105938     2.5223327    -0.0865396
H          -0.3548636     2.8262923     0.5171197
H           1.3569434     3.1500224     0.2250977
C           0.8510958     1.0511438     0.2165620
H           1.1173425     0.9381796     1.2659038
H          -0.0347080     0.4212334     0.0401772
N           1.9490083     0.5677673    -0.6256436
C           1.6814329     0.7411417    -2.0503714
H           0.7959045     0.1314151    -2.2951723
H           2.5128980     0.3282114    -2.6263396
C           1.3833710     2.1995524    -2.4374334
H           2.2805572     2.8135131    -2.2811759
H           1.1334466     2.2558614    -3.5051391
C           0.6904500    -2.3793098     3.4986618
H          -0.0136975    -2.9426059     4.1052315
C           1.5153672    -1.4197845     4.0857360
H           1.4556784    -1.2285317     5.1542196
C           2.4188099    -0.6976700     3.3038726
H           3.0524268     0.0549102     3.7662232
C           2.5156599    -0.9166323     1.9198200
C           1.6784555    -1.8879780     1.3428380
H           1.7440899    -2.0748553     0.2754761
C           0.7777388    -2.6102401     2.1232057
H           0.1460824    -3.3624878     1.6572041
37
125_C17H19N_8-7-19-16 (-120,) energy =    -714.0043215
C           5.5865787     0.9445930    -0.4037311
H           6.3742656     1.3998900    -0.9988356
C           5.8840807     0.3298073     0.8098925
H           6.9059761     0.2837139     1.1753190
C           4.8492272    -0.2491914     1.5425120
H           5.0751554    -0.7733232     2.4673728
C           3.5190671    -0.2366352     1.0976489
C           3.2106713     0.4309122    -0.1218543
C           4.2682039     1.0047233    -0.8516424
H           4.0539721     1.5231787    -1.7794958
C           0.3132044     2.7703483    -1.6199158
H          -0.6661878     2.3030533    -1.8035773
H           0.2144821     3.8259975    -1.9013018
C           0.6641160     2.6324469    -0.1317383
H          -0.1266811     3.0661922     0.4945085
H           1.5877933     3.1864673     0.0862237
C           0.8622544     1.1558894     0.2489749
H           1.1446655     1.0631329     1.2981376
H          -0.0901171     0.6174578     0.1264096
N           1.8753183     0.4903301    -0.5825352
C           1.6006105     0.6289404    -2.0135810
H           0.6830809     0.0556349    -2.2231819
H           2.4074692     0.1476168    -2.5736899
C           1.3753313     2.0781469    -2.4871431
H           2.3140470     2.6443195    -2.4296677
H           1.0711198     2.0707597    -3.5422039
C           0.6982235    -2.4611950     3.4832656
H           0.0003468    -3.0333918     4.0888237
C           1.5331483    -1.5148133     4.0769333
H           1.4881204    -1.3420749     5.1492600
C           2.4282927    -0.7816083     3.2958937
H           3.0694130    -0.0387998     3.7636591
C           2.5067024    -0.9762306     1.9069936
C           1.6578407    -1.9328755     1.3228149
H           1.7059038    -2.0981342     0.2517459
C           0.7665576    -2.6671087     2.1026695
H           0.1260600    -3.4085631     1.6314993
37
125_C17H19N_8-7-19-16 (-105,) energy =    -714.0026675
C           5.5266633     1.0968174    -0.3030382
H           6.2965275     1.6255630    -0.8593956
C           5.8479934     0.3982573     0.8582916
H           6.8729569     0.3592364     1.2164807
C           4.8376555    -0.2637167     1.5543049
H           5.0848988    -0.8344222     2.4454531
C           3.5057242    -0.2594678     1.1135128
C           3.1777427     0.4631487    -0.0655859
C           4.2038118     1.1439396    -0.7421042
H           3.9632571     1.7176595    -1.6300777
C           0.3554821     2.7810817    -1.7037869
H          -0.6565584     2.3551809    -1.7794231
H           0.2957511     3.8027556    -2.0987444
C           0.7858661     2.7856756    -0.2301522
H           0.0646822     3.3423076     0.3827391
H           1.7562649     3.2902271    -0.1234354
C           0.8982242     1.3466421     0.2959939
H           1.2202682     1.3335252     1.3398786
H          -0.0963558     0.8750233     0.2642977
N           1.8214343     0.5133005    -0.4885375
C           1.5207079     0.5363144    -1.9236296
H           0.5843645    -0.0276993    -2.0653398
H           2.3056590    -0.0166442    -2.4489451
C           1.3265382     1.9366460    -2.5419964
H           2.2888243     2.4595905    -2.6128271
H           0.9546186     1.8237713    -3.5690674
C           0.6864053    -2.5447477     3.4414732
H          -0.0124728    -3.1300016     4.0333106
C           1.5292158    -1.6207650     4.0582875
H           1.4895912    -1.4781021     5.1352294
C           2.4256131    -0.8713943     3.2940578
H           3.0730389    -0.1459062     3.7799776
C           2.4968353    -1.0270658     1.9000729
C           1.6393480    -1.9605871     1.2922679
H           1.6818378    -2.0965558     0.2173091
C           0.7477828    -2.7118603     2.0552293
H           0.1005471    -3.4355649     1.5660648
37
125_C17H19N_8-7-19-16 (-90,) energy =    -714.0015110
C           6.0152527     0.9560467    -0.0213599
H           6.9029882     1.4642414    -0.3888260
C           6.1300005    -0.1946903     0.7598240
H           7.1074772    -0.5916748     1.0202202
C           4.9769505    -0.8338664     1.2064448
H           5.0588705    -1.7215990     1.8284537
C           3.6918861    -0.3457753     0.9079938
C           3.5762814     0.8070269     0.0934448
C           4.7515871     1.4298295    -0.3604210
H           4.6400224     2.2919215    -1.0118224
C          -0.2194062     2.4127931    -1.2142525
H          -0.9172526     2.0006066    -0.4701408
H          -0.8189037     3.0166254    -1.9069054
C           0.8210876     3.2870583    -0.4993261
H           0.3280331     4.0547590     0.1111494
H           1.4405957     3.8055707    -1.2428889
C           1.7328007     2.4321899     0.3899324
H           2.5310261     3.0456565     0.8212393
H           1.1385107     2.0293054     1.2322599
N           2.3493064     1.3595816    -0.3950705
C           1.3683904     0.4589431    -1.0069063
H           0.7388860    -0.0514573    -0.2577266
H           1.9118366    -0.3161999    -1.5568692
C           0.4642302     1.2555846    -1.9570117
H           1.0742530     1.6525999    -2.7789627
H          -0.2847255     0.5841525    -2.3965718
C           0.3965478    -2.5204016     2.6409014
H          -0.4267038    -3.0744612     3.0839234
C           0.6344064    -1.1965079     3.0148180
H           0.0019672    -0.7180252     3.7582298
C           1.6911568    -0.4846670     2.4459756
H           1.8860408     0.5357047     2.7616670
C           2.5262469    -1.0794163     1.4873687
C           2.2854084    -2.4163139     1.1330952
H           2.9280109    -2.8919931     0.3967660
C           1.2286142    -3.1294442     1.7000773
H           1.0551952    -4.1612364     1.4052846
37
125_C17H19N_8-7-19-16 (-75,) energy =    -714.0026741
C           5.9598289     1.0338160     0.0593345
H           6.8341578     1.5905320    -0.2679670
C           6.1053494    -0.1705902     0.7513644
H           7.0924745    -0.5605936     0.9837254
C           4.9685073    -0.8653351     1.1506562
H           5.0724597    -1.7864172     1.7184095
C           3.6703218    -0.3865906     0.8919734
C           3.5245242     0.8120680     0.1502036
C           4.6868417     1.4986876    -0.2495161
H           4.5615180     2.3988918    -0.8449938
C          -0.1789587     2.5310598    -1.2437375
H          -0.9038561     2.2599061    -0.4615592
H          -0.7311535     3.1051096    -1.9981565
C           0.9342054     3.3884062    -0.6241547
H           0.5097226     4.2540217    -0.0991697
H           1.5872498     3.7736740    -1.4185086
C           1.7821402     2.5621554     0.3512722
H           2.6350193     3.1469935     0.7090864
H           1.1679072     2.3097574     1.2389394
N           2.2869505     1.3518209    -0.2964662
C           1.2361778     0.4810875    -0.8210359
H           0.5651661     0.1085063    -0.0283167
H           1.7092220    -0.3919540    -1.2803710
C           0.4013736     1.2480623    -1.8564315
H           1.0390453     1.5014504    -2.7134821
H          -0.4043331     0.5999966    -2.2250819
C           0.4410434    -2.6477319     2.6350736
H          -0.3638393    -3.2221821     3.0857877
C           0.5933325    -1.2931940     2.9388001
H          -0.0885375    -0.8104971     3.6343175
C           1.6265799    -0.5554809     2.3611469
H           1.7518963     0.4920359     2.6194334
C           2.5265340    -1.1544297     1.4645869
C           2.3667246    -2.5191706     1.1764276
H           3.0541844    -2.9972847     0.4833729
C           1.3332817    -3.2586748     1.7526885
H           1.2243368    -4.3125005     1.5093881
37
125_C17H19N_8-7-19-16 (-60,) energy =    -714.0031786
C           5.8920773     1.0834884     0.0942637
H           6.7498082     1.6773930    -0.2111705
C           6.0731379    -0.1626843     0.6989642
H           7.0710191    -0.5489798     0.8863888
C           4.9550097    -0.8986853     1.0758188
H           5.0849388    -1.8483571     1.5883834
C           3.6444581    -0.4257102     0.8780378
C           3.4623284     0.8135469     0.2109696
C           4.6075526     1.5485236    -0.1584349
H           4.4661614     2.4838955    -0.6929752
C          -0.1179535     2.6033100    -1.3346248
H          -0.8839747     2.4745154    -0.5551226
H          -0.6010209     3.1331829    -2.1648575
C           1.0421730     3.4343290    -0.7672988
H           0.6737577     4.3819817    -0.3532507
H           1.7479413     3.6799661    -1.5722347
C           1.7865135     2.6523250     0.3229031
H           2.6683421     3.2022588     0.6617066
H           1.1200607     2.5424263     1.2021111
N           2.2048416     1.3383904    -0.1568739
C           1.1155074     0.5026282    -0.6491693
H           0.3940697     0.2578689     0.1495680
H           1.5331332    -0.4431498    -1.0031567
C           0.3754330     1.2217086    -1.7877994
H           1.0568163     1.3334731    -2.6416128
H          -0.4679238     0.6020569    -2.1194355
C           0.4975579    -2.7776751     2.6522134
H          -0.2846109    -3.3745579     3.1136455
C           0.6084396    -1.4161906     2.9435124
H          -0.0835254    -0.9506175     3.6408056
C           1.6120781    -0.6497817     2.3518920
H           1.7038681     0.4045132     2.5977687
C           2.5264265    -1.2264515     1.4542286
C           2.4058987    -2.5976438     1.1759960
H           3.1012770    -3.0594686     0.4797503
C           1.4014938    -3.3655950     1.7663112
H           1.3240738    -4.4239228     1.5304367
37
125_C17H19N_8-7-19-16 (-45,) energy =    -714.0033304
C           5.7658366     1.1463444     0.0404517
H           6.5942731     1.7649726    -0.2955627
C           6.0023397    -0.1180142     0.5819060
H           7.0150217    -0.4954044     0.6915176
C           4.9188571    -0.8861657     0.9989447
H           5.0951443    -1.8525346     1.4641203
C           3.5939307    -0.4278481     0.9034443
C           3.3528746     0.8402776     0.3081009
C           4.4614129     1.6051217    -0.1085104
H           4.2818900     2.5625435    -0.5893134
C           0.0272606     2.6758189    -1.4924906
H          -0.8362881     2.6736427    -0.8101237
H          -0.3044335     3.1664315    -2.4158515
C           1.1760055     3.4639038    -0.8446917
H           0.8413679     4.4691504    -0.5564168
H           1.9937725     3.5866454    -1.5681496
C           1.7024979     2.7191087     0.3917883
H           2.5721979     3.2249660     0.8185218
H           0.9142911     2.7301596     1.1683681
N           2.0564443     1.3370714     0.0969636
C           0.9866516     0.5470367    -0.5011460
H           0.1593305     0.4120767     0.2166549
H           1.3685351    -0.4482610    -0.7346615
C           0.4509048     1.2264863    -1.7732892
H           1.2376005     1.2142584    -2.5399028
H          -0.3954882     0.6475013    -2.1657919
C           0.5675134    -2.9102693     2.7118460
H          -0.1839477    -3.5400832     3.1805181
C           0.6395245    -1.5499123     3.0220986
H          -0.0516989    -1.1189869     3.7421353
C           1.6016008    -0.7400350     2.4208401
H           1.6593270     0.3137424     2.6765894
C           2.5165150    -1.2716208     1.4952640
C           2.4334508    -2.6414567     1.1958226
H           3.1258630    -3.0688708     0.4750974
C           1.4694247    -3.4527238     1.7960481
H           1.4221119    -4.5090332     1.5435893
37
125_C17H19N_8-7-19-16 (-30,) energy =    -714.0042371
C           5.6168342     1.1889327    -0.0598733
H           6.4150125     1.8269119    -0.4311614
C           5.8974757    -0.0912204     0.4132192
H           6.9166435    -0.4664815     0.4321826
C           4.8494870    -0.8801102     0.8838579
H           5.0624044    -1.8621177     1.2980203
C           3.5214569    -0.4276062     0.9035916
C           3.2316594     0.8643090     0.3807214
C           4.3023294     1.6489356    -0.0887647
H           4.0963709     2.6296054    -0.5047617
C           0.2360632     2.7023855    -1.6547181
H          -0.7159529     2.8113456    -1.1132413
H           0.0827840     3.1399644    -2.6488607
C           1.3369114     3.4592364    -0.8959225
H           1.0412486     4.5022547    -0.7214584
H           2.2502251     3.4817894    -1.5054978
C           1.6267204     2.7745041     0.4525175
H           2.4572800     3.2570308     0.9751717
H           0.7370922     2.8891561     1.0944035
N           1.9072345     1.3453491     0.3412948
C           0.8664706     0.6062074    -0.3787780
H          -0.0570451     0.6208805     0.2214525
H           1.1675829    -0.4379453    -0.4699958
C           0.5831184     1.2104222    -1.7650447
H           1.4711282     1.0816516    -2.3993608
H          -0.2370479     0.6576159    -2.2420170
C           0.6460299    -3.0295042     2.7904778
H          -0.0661613    -3.6904948     3.2772881
C           0.7207931    -1.6826600     3.1556766
H           0.0711309    -1.2943385     3.9361523
C           1.6307790    -0.8317684     2.5313817
H           1.6853838     0.2120894     2.8223815
C           2.4919952    -1.3089573     1.5275865
C           2.4067506    -2.6653260     1.1725386
H           3.0571104    -3.0500903     0.3911563
C           1.4933577    -3.5173938     1.7958283
H           1.4434716    -4.5622007     1.4997623
37
125_C17H19N_8-7-19-16 (-15,) energy =    -714.0042138
C           5.5632349     1.2535860    -0.0107799
H           6.3599898     1.9159767    -0.3399561
C           5.8428875    -0.0590042     0.3582943
H           6.8586114    -0.4428213     0.3326074
C           4.7950163    -0.8671920     0.7955532
H           5.0060223    -1.8737901     1.1467863
C           3.4718147    -0.4084985     0.8698048
C           3.1761259     0.9135375     0.4234878
C           4.2524893     1.7261009     0.0171311
H           4.0623516     2.7393616    -0.3163429
C           0.3217828     2.6418229    -1.7471381
H          -0.6484487     2.8532284    -1.2726581
H           0.2422513     2.9793617    -2.7878443
C           1.4248158     3.4161822    -1.0106883
H           1.1762560     4.4838896    -0.9485023
H           2.3625266     3.3377151    -1.5755958
C           1.6156440     2.8546327     0.4108497
H           2.4220637     3.3680303     0.9418082
H           0.6933885     3.0460523     0.9811861
N           1.8531161     1.4098626     0.4679516
C           0.7892656     0.6664552    -0.2295024
H          -0.1463421     0.8133888     0.3305331
H           1.0111210    -0.3992448    -0.1991174
C           0.5953800     1.1327978    -1.6823557
H           1.5004759     0.8938086    -2.2578851
H          -0.2311019     0.5694001    -2.1352878
C           0.6865051    -3.0927574     2.7773077
H          -0.0006293    -3.7753253     3.2703319
C           0.7898645    -1.7659215     3.2037607
H           0.1872588    -1.4152442     4.0379502
C           1.6680036    -0.8876482     2.5718965
H           1.7427503     0.1417111     2.9068885
C           2.4674084    -1.3170995     1.4977575
C           2.3546760    -2.6539014     1.0814451
H           2.9582723    -3.0012347     0.2467948
C           1.4728278    -3.5329991     1.7127320
H           1.4001881    -4.5616729     1.3687620
37
125_C17H19N_8-7-19-16 (0,) energy =    -714.0054665
C           5.7986886     1.3901543     0.8895954
H           6.6682022     2.0172666     0.7095927
C           5.8697230     0.3188769     1.7726128
H           6.7917646     0.0857746     2.2972968
C           4.7407095    -0.4812887     1.9422504
H           4.8017016    -1.3649004     2.5718371
C           3.5355746    -0.2334071     1.2707048
C           3.4366531     0.9213203     0.4378626
C           4.6040083     1.6778061     0.2288028
H           4.5771642     2.5463373    -0.4170306
C          -0.2557691     2.4224497    -1.2853584
H          -0.3066782     3.4098259    -0.8032504
H          -1.1404536     2.3386843    -1.9284814
C           1.0278459     2.3281098    -2.1161223
H           1.1017986     3.1668069    -2.8199261
H           1.0146075     1.4057615    -2.7114698
C           2.2799196     2.3129003    -1.2304430
H           3.1580437     2.1871005    -1.8706260
H           2.3848064     3.2845932    -0.7109706
N           2.2325971     1.1993029    -0.2734283
C           1.0433891     1.3687312     0.6009792
H           1.1174421     2.3327898     1.1389168
H           1.0318793     0.5813241     1.3514718
C          -0.2543460     1.3332896    -0.2074817
H          -0.3537666     0.3430941    -0.6705330
H          -1.1036138     1.4590800     0.4759367
C           0.5742606    -3.3448405     1.6568585
H          -0.1553114    -4.1444642     1.7538101
C           1.1359001    -2.7627946     2.7933425
H           0.8439524    -3.1047111     3.7830627
C           2.0737922    -1.7367418     2.6654419
H           2.5019275    -1.2817941     3.5549849
C           2.4661488    -1.2683202     1.4007447
C           1.8914778    -1.8639416     0.2639264
H           2.1822948    -1.5121295    -0.7202367
C           0.9575172    -2.8906058     0.3921400
H           0.5320655    -3.3436344    -0.4999055
37
125_C17H19N_8-7-19-16 (15,) energy =    -714.0081561
C           5.7766019     1.4631260     0.9812161
H           6.6256423     2.1311670     0.8604388
C           5.8769801     0.3322358     1.7852062
H           6.8049631     0.0929711     2.2967096
C           4.7720219    -0.5102721     1.9043510
H           4.8541639    -1.4231376     2.4882282
C           3.5623590    -0.2545824     1.2438239
C           3.4471097     0.9297966     0.4621745
C           4.5760390     1.7566532     0.3340058
H           4.5119278     2.6639527    -0.2554913
C          -0.2344034     2.3861718    -1.2878443
H          -0.2362134     3.4194401    -0.9099964
H          -1.1420011     2.2705211    -1.8930186
C           1.0185369     2.1644707    -2.1437502
H           1.0881516     2.9217133    -2.9350278
H           0.9635727     1.1841692    -2.6347767
C           2.2921263     2.2149877    -1.2909905
H           3.1633528     1.9917937    -1.9148735
H           2.4235156     3.2422468    -0.8970643
N           2.2295918     1.2272148    -0.2114041
C           1.0755789     1.4866552     0.6741547
H           1.1788364     2.4863573     1.1388805
H           1.0755037     0.7535078     1.4810160
C          -0.2415065     1.4138726    -0.1019741
H          -0.3796422     0.3857999    -0.4602638
H          -1.0729854     1.6365335     0.5786340
C           0.5521168    -3.3234064     1.5850872
H          -0.1919946    -4.1107304     1.6718535
C           1.1487143    -2.7900922     2.7274706
H           0.8699696    -3.1574269     3.7118757
C           2.1052512    -1.7798915     2.6120983
H           2.5604801    -1.3628986     3.5067570
C           2.4824680    -1.2790462     1.3550800
C           1.8713843    -1.8250667     0.2125964
H           2.1507940    -1.4497196    -0.7657610
C           0.9193066    -2.8365925     0.3276817
H           0.4667902    -3.2521775    -0.5692661
37
125_C17H19N_8-7-19-16 (30,) energy =    -714.0081144
C           5.7288780     1.5278513     1.0798087
H           6.5527593     2.2343196     1.0179142
C           5.8616132     0.3497956     1.8102737
H           6.7933912     0.1133189     2.3164908
C           4.7867216    -0.5364042     1.8740447
H           4.8936943    -1.4718775     2.4166488
C           3.5739893    -0.2835541     1.2162941
C           3.4381045     0.9257296     0.4841771
C           4.5238347     1.8145978     0.4387475
H           4.4208748     2.7504855    -0.1008206
C          -0.2427262     2.3428211    -1.2725573
H          -0.1826321     3.4103715    -1.0129924
H          -1.1799699     2.2057643    -1.8259364
C           0.9608015     1.9691446    -2.1478627
H           1.0196863     2.6227845    -3.0274485
H           0.8485331     0.9395669    -2.5120564
C           2.2681274     2.0729890    -1.3532538
H           3.1146383     1.7411067    -1.9631849
H           2.4435412     3.1390826    -1.1029815
N           2.2056034     1.2334793    -0.1576568
C           1.0997276     1.6025180     0.7384838
H           1.2453562     2.6318804     1.1223472
H           1.1116049     0.9314444     1.6003375
C          -0.2465502     1.5070686     0.0143038
H          -0.4387915     0.4538696    -0.2265419
H          -1.0448096     1.8392863     0.6900706
C           0.5477269    -3.3411782     1.5028483
H          -0.2026419    -4.1238951     1.5768400
C           1.1596908    -2.8417830     2.6522071
H           0.8865966    -3.2308596     3.6297946
C           2.1242348    -1.8374358     2.5523338
H           2.5914082    -1.4463132     3.4525023
C           2.4943002    -1.3091672     1.3045942
C           1.8673554    -1.8208845     0.1551090
H           2.1428305    -1.4265603    -0.8165942
C           0.9077829    -2.8268936     0.2542460
H           0.4432171    -3.2162929    -0.6482513
37
125_C17H19N_8-7-19-16 (45,) energy =    -714.0064187
C           5.6629711     1.6035165     1.2019914
H           6.4579431     2.3448912     1.1987314
C           5.8298642     0.3910459     1.8687201
H           6.7615606     0.1662734     2.3807856
C           4.7923357    -0.5399543     1.8702109
H           4.9261779    -1.4924693     2.3758500
C           3.5801673    -0.2994626     1.2035417
C           3.4192327     0.9305842     0.5195150
C           4.4591494     1.8713145     0.5512646
H           4.3201052     2.8269239     0.0538910
C          -0.2269581     2.3786583    -1.2664347
H          -0.0602050     3.4611393    -1.1600336
H          -1.2023123     2.2571924    -1.7536657
C           0.8881098     1.7802099    -2.1348625
H           0.9482764     2.2977327    -3.1008073
H           0.6688012     0.7244647    -2.3410660
C           2.2425972     1.8762542    -1.4226368
H           3.0236838     1.3797058    -2.0080132
H           2.5232244     2.9472492    -1.3498451
N           2.1734317     1.2307438    -0.1124524
C           1.1527689     1.8004916     0.7730770
H           1.3920950     2.8538961     1.0245909
H           1.1611302     1.2360821     1.7104048
C          -0.2326940     1.7263224     0.1228020
H          -0.5196056     0.6708581     0.0341882
H          -0.9674449     2.2129774     0.7767779
C           0.5809095    -3.3889837     1.3986347
H          -0.1647759    -4.1779393     1.4509520
C           1.1882134    -2.9163240     2.5615598
H           0.9160609    -3.3321657     3.5283245
C           2.1467872    -1.9039373     2.4889357
H           2.6094348    -1.5331133     3.3999466
C           2.5147645    -1.3411726     1.2560794
C           1.8925378    -1.8260764     0.0929899
H           2.1689877    -1.4084282    -0.8685359
C           0.9395952    -2.8404263     0.1642930
H           0.4780683    -3.2084912    -0.7486119
37
125_C17H19N_8-7-19-16 (60,) energy =    -714.0048220
C           5.5461026     1.6528145     1.3332543
H           6.3065479     2.4284408     1.3732763
C           5.7679431     0.4124735     1.9314160
H           6.7080001     0.2050232     2.4357340
C           4.7788370    -0.5667007     1.8762500
H           4.9577082    -1.5370157     2.3313728
C           3.5539076    -0.3462049     1.2217538
C           3.3392012     0.9096512     0.6085387
C           4.3346841     1.8938873     0.6878942
H           4.1500929     2.8642306     0.2342702
C          -0.1881124     2.4816074    -1.3003094
H           0.1375377     3.5282080    -1.3971446
H          -1.1967519     2.4249166    -1.7279882
C           0.7787700     1.5775994    -2.0771411
H           0.8613225     1.9030023    -3.1219996
H           0.3956751     0.5488334    -2.0823297
C           2.1689042     1.5839573    -1.4311800
H           2.8328658     0.8763129    -1.9400874
H           2.6169820     2.5907900    -1.5580431
N           2.0788858     1.1928267    -0.0215012
C           1.2094157     2.0745233     0.7656597
H           1.6057388     3.1101140     0.8015146
H           1.1938876     1.7020717     1.7952484
C          -0.2079932     2.0913240     0.1838194
H          -0.6434698     1.0902739     0.2960264
H          -0.8301613     2.7875779     0.7604599