37
125_C17H19N_4-6-32-33 (-165,) energy =    -714.0015105
C           5.6125864     1.6319992     1.1857518
H           6.4035587     2.3760433     1.1408836
C           5.7312111     0.5099993     1.9989447
H           6.6201247     0.3497636     2.6027032
C           4.7019375    -0.4255402     2.0211161
H           4.8533658    -1.3217871     2.6110266
C           3.5354144    -0.3154698     1.2379351
C           3.3941059     0.8796697     0.4656431
C           4.4488380     1.8079589     0.4432873
H           4.3419099     2.7088376    -0.1501042
C          -0.1648377     2.4360476    -1.4334786
H          -0.0486935     3.4995702    -1.1770157
H          -1.0938640     2.3509281    -2.0104517
C           1.0388730     1.9886408    -2.2726829
H           1.1610876     2.6351359    -3.1509490
H           0.8801325     0.9663802    -2.6403648
C           2.3245419     2.0264951    -1.4389935
H           3.1756917     1.6694294    -2.0277531
H           2.5298009     3.0816917    -1.1698356
N           2.1930269     1.1726743    -0.2556227
C           1.0814827     1.6108937     0.6115327
H           1.2868764     2.6260458     1.0032981
H           1.0267615     0.9386835     1.4710293
C          -0.2513096     1.6092909    -0.1441784
H          -0.5212732     0.5733020    -0.3853523
H          -1.0361889     2.0001585     0.5156346
C           0.5628702    -3.4621878     1.6515558
H          -0.1786171    -4.2484785     1.7651537
C           1.5631710    -3.2865460     2.6075453
H           1.6028144    -3.9297718     3.4830349
C           2.5102293    -2.2754548     2.4623086
H           3.2376328    -2.1487814     3.2557616
C           2.5124407    -1.4086988     1.3479026
C           1.4682017    -1.5825771     0.4171842
H           1.4269853    -0.9310331    -0.4443336
C           0.5247845    -2.5999030     0.5568706
H          -0.2488552    -2.7121301    -0.1989837
37
125_C17H19N_4-6-32-33 (-150,) energy =    -714.0057498
C           5.6866030     1.5669911     1.1187057
H           6.4977597     2.2880365     1.0588437
C           5.8008059     0.4328634     1.9163470
H           6.7049824     0.2422672     2.4876562
C           4.7451386    -0.4743185     1.9601456
H           4.8676433    -1.3856306     2.5369446
C           3.5643347    -0.3075248     1.2147220
C           3.4306516     0.8905830     0.4521462
C           4.5085708     1.7903859     0.4089755
H           4.4138495     2.7014809    -0.1710801
C          -0.1916724     2.3946992    -1.3664887
H          -0.1248801     3.4506018    -1.0647918
H          -1.1157053     2.2914431    -1.9485579
C           1.0305073     2.0387377    -2.2223360
H           1.1242772     2.7277696    -3.0712996
H           0.9151957     1.0277258    -2.6346569
C           2.3158047     2.0914691    -1.3884036
H           3.1757282     1.7877611    -1.9941307
H           2.4879133     3.1408975    -1.0758682
N           2.2187148     1.1886703    -0.2397195
C           1.0924361     1.5490336     0.6429478
H           1.2531864     2.5604407     1.0646924
H           1.0681354     0.8496705     1.4809379
C          -0.2388137     1.5113086    -0.1132024
H          -0.4533686     0.4730235    -0.3963141
H          -1.0424487     1.8358790     0.5598760
C           0.5485180    -3.3891423     1.6107988
H          -0.2035442    -4.1665413     1.7160687
C           1.3938737    -3.0744065     2.6745234
H           1.2992021    -3.5987669     3.6220407
C           2.3559299    -2.0746661     2.5367628
H           2.9755777    -1.8230948     3.3918858
C           2.5149735    -1.3666211     1.3294856
C           1.6311734    -1.6782717     0.2782956
H           1.7151112    -1.1368687    -0.6551235
C           0.6741843    -2.6827719     0.4133475
H           0.0216510    -2.9132550    -0.4252917
37
125_C17H19N_4-6-32-33 (-135,) energy =    -714.0080987
C           5.7330177     1.5172852     1.0617206
H           6.5621614     2.2155891     0.9807060
C           5.8457460     0.3717679     1.8437951
H           6.7657934     0.1507071     2.3775245
C           4.7654793    -0.5061325     1.9183968
H           4.8666581    -1.4247242     2.4896191
C           3.5662698    -0.2825775     1.2243819
C           3.4403829     0.9131942     0.4627405
C           4.5396278     1.7843789     0.3913056
H           4.4548193     2.7017296    -0.1807443
C          -0.2204912     2.3738695    -1.3125586
H          -0.1806098     3.4267912    -0.9959660
H          -1.1426630     2.2548215    -1.8946151
C           1.0082378     2.0610566    -2.1758465
H           1.0833176     2.7643033    -3.0149726
H           0.9159091     1.0534456    -2.6018942
C           2.2954700     2.1301916    -1.3457502
H           3.1571094     1.8480740    -1.9594191
H           2.4523561     3.1785412    -1.0214762
N           2.2201311     1.2141382    -0.2067783
C           1.0893195     1.5388185     0.6823833
H           1.2249022     2.5511503     1.1109501
H           1.0843469     0.8330171     1.5149315
C          -0.2414767     1.4718897    -0.0718826
H          -0.4230030     0.4312827    -0.3693081
H          -1.0538416     1.7632831     0.6058967
C           0.5425494    -3.3441214     1.5680486
H          -0.2084813    -4.1246557     1.6566350
C           1.2333624    -2.8992357     2.6949831
H           1.0201012    -3.3273129     3.6711657
C           2.1969422    -1.8967584     2.5766569
H           2.7158760    -1.5454429     3.4643937
C           2.4952493    -1.3163999     1.3314563
C           1.7816285    -1.7681982     0.2065113
H           1.9910697    -1.3291010    -0.7617261
C           0.8232002    -2.7733321     0.3240669
H           0.2953560    -3.1161293    -0.5624500
37
125_C17H19N_4-6-32-33 (-120,) energy =    -714.0082461
C           5.7686282     1.4861957     1.0015550
H           6.6107212     2.1663834     0.9014257
C           5.8872089     0.3230241     1.7567929
H           6.8241289     0.0709476     2.2454853
C           4.7893130    -0.5312559     1.8620684
H           4.8808394    -1.4602233     2.4187942
C           3.5688562    -0.2536925     1.2320867
C           3.4449228     0.9442201     0.4776901
C           4.5587746     1.7942106     0.3788714
H           4.4764114     2.7197670    -0.1805260
C          -0.2453971     2.3606682    -1.2728089
H          -0.2284689     3.4127171    -0.9511937
H          -1.1648781     2.2242483    -1.8553354
C           0.9892206     2.0781385    -2.1382280
H           1.0489128     2.7867969    -2.9740672
H           0.9174585     1.0706264    -2.5682194
C           2.2765469     2.1682324    -1.3097909
H           3.1405825     1.9002742    -1.9262501
H           2.4188619     3.2181532    -0.9836985
N           2.2180577     1.2498141    -0.1724019
C           1.0831426     1.5502933     0.7178297
H           1.1960484     2.5663628     1.1444115
H           1.0937091     0.8462915     1.5514504
C          -0.2457663     1.4526804    -0.0363334
H          -0.3988263     0.4090400    -0.3390914
H          -1.0660055     1.7203266     0.6417577
C           0.5510090    -3.3162381     1.5288255
H          -0.1940875    -4.1037935     1.6047081
C           1.0845331    -2.7393842     2.6811496
H           0.7563939    -3.0740029     3.6619723
C           2.0434459    -1.7294615     2.5793284
H           2.4555990    -1.2811283     3.4798896
C           2.4812629    -1.2718568     1.3262761
C           1.9389508    -1.8654432     0.1737797
H           2.2726688    -1.5273736    -0.8016002
C           0.9839993    -2.8758665     0.2751159
H           0.5820782    -3.3278982    -0.6282376
37
125_C17H19N_4-6-32-33 (-105,) energy =    -714.0067226
C           5.7889092     1.4700367     0.9456052
H           6.6345153     2.1441883     0.8344333
C           5.9222085     0.2858834     1.6653459
H           6.8735707     0.0115108     2.1124079
C           4.8190635    -0.5600110     1.7887224
H           4.9174023    -1.5017103     2.3226515
C           3.5795184    -0.2465227     1.2182910
C           3.4456584     0.9610845     0.4843888
C           4.5632216     1.8045438     0.3691487
H           4.4734646     2.7401769    -0.1723602
C          -0.2670599     2.3697046    -1.2250135
H          -0.2483501     3.4248582    -0.9137637
H          -1.1932570     2.2259285    -1.7950118
C           0.9575879     2.0807547    -2.1025137
H           1.0058857     2.7810780    -2.9461069
H           0.8828289     1.0685450    -2.5205311
C           2.2543745     2.1805393    -1.2900431
H           3.1117429     1.9086451    -1.9139596
H           2.3987523     3.2333490    -0.9742028
N           2.2095022     1.2709870    -0.1448679
C           1.0871812     1.5801663     0.7568061
H           1.2043216     2.6004493     1.1723758
H           1.1079333     0.8842452     1.5966353
C          -0.2509646     1.4736672     0.0201171
H          -0.4051766     0.4269586    -0.2712807
H          -1.0635472     1.7465423     0.7053617
C           0.5759877    -3.3250920     1.4893018
H          -0.1624156    -4.1193847     1.5604743
C           0.9377077    -2.5983943     2.6236724
H           0.4838024    -2.8247845     3.5851281
C           1.8897198    -1.5807632     2.5290606
H           2.1765380    -1.0216871     3.4164532
C           2.4859313    -1.2634183     1.2991729
C           2.1241458    -2.0129101     0.1687265
H           2.5908204    -1.7879687    -0.7856503
C           1.1745761    -3.0298226     0.2617149
H           0.9081086    -3.6001228    -0.6246084
37
125_C17H19N_4-6-32-33 (-90,) energy =    -714.0046739
C           5.7741200     1.4884419     0.9200839
H           6.6131993     2.1711632     0.8115971
C           5.9312567     0.2802840     1.5942414
H           6.8950004    -0.0026266     2.0083580
C           4.8366882    -0.5771163     1.7156684
H           4.9528324    -1.5343611     2.2174664
C           3.5810296    -0.2498136     1.1901161
C           3.4245404     0.9774738     0.4973783
C           4.5334707     1.8324447     0.3833800
H           4.4249256     2.7811403    -0.1318903
C          -0.3022642     2.4093592    -1.1609395
H          -0.2549794     3.4742255    -0.8880999
H          -1.2457020     2.2645004    -1.7016319
C           0.8934086     2.0653771    -2.0587501
H           0.9331115     2.7354589    -2.9270475
H           0.7889296     1.0409405    -2.4385930
C           2.2114319     2.1666678    -1.2814047
H           3.0498652     1.8607776    -1.9152623
H           2.3799883     3.2262743    -1.0020785
N           2.1759381     1.2918742    -0.1084995
C           1.0881139     1.6600804     0.8115208
H           1.2383354     2.6918256     1.1872861
H           1.1171241     0.9946496     1.6751700
C          -0.2719372     1.5579468     0.1151172
H          -0.4562316     0.5053330    -0.1343127
H          -1.0598749     1.8734534     0.8109008
C           0.5978093    -3.3540899     1.4403693
H          -0.1358396    -4.1530161     1.5088305
C           0.7704401    -2.4665499     2.5028869
H           0.1757562    -2.5737943     3.4065069
C           1.7162754    -1.4428802     2.4133963
H           1.8620447    -0.7664803     3.2522125
C           2.4939580    -1.2790765     1.2575172
C           2.3255645    -2.1923554     0.2060638
H           2.9376862    -2.0902290    -0.6856937
C           1.3810628    -3.2153145     0.2924366
H           1.2625938    -3.9103251    -0.5350244
37
125_C17H19N_4-6-32-33 (-75,) energy =    -714.0063214
C           5.5907000     1.6731855     1.5751312
H           6.3244685     2.4516777     1.7686277
C           5.8932721     0.3398980     1.8372342
H           6.8577692     0.0596333     2.2512624
C           4.9294585    -0.6360730     1.5800386
H           5.1413941    -1.6779943     1.8065338
C           3.6718903    -0.3146107     1.0549757
C           3.3639098     1.0459944     0.7914882
C           4.3439026     2.0182045     1.0530854
H           4.1318503     3.0605312     0.8398717
C          -0.3245711     2.4198234    -0.9967370
H           0.0600203     3.1442587    -1.7301518
H          -1.4172133     2.4227766    -1.0943997
C           0.2453543     1.0304607    -1.3103180
H           0.0424028     0.7536314    -2.3526974
H          -0.2335525     0.2774780    -0.6716883
C           1.7557030     0.9876473    -1.0617077
H           2.1326238    -0.0233290    -1.2213744
H           2.2717605     1.6489249    -1.7856268
N           2.0731393     1.4019600     0.3148234
C           1.6127505     2.7625431     0.5932008
H           2.0995151     3.5062785    -0.0693532
H           1.8870342     3.0162985     1.6221447
C           0.0929007     2.8590379     0.4125995
H          -0.3902910     2.2156420     1.1592190
H          -0.2288668     3.8895112     0.6102936
C           0.7639554    -3.4774200     0.6911508
H           0.0339836    -4.2781613     0.6064056
C           0.6415741    -2.5191349     1.7005211
H          -0.1845342    -2.5733980     2.4050917
C           1.5772201    -1.4907937     1.8108607
H           1.4767361    -0.7439644     2.5928226
C           2.6598597    -1.4082617     0.9219079
C           2.7643346    -2.3685249    -0.0954526
H           3.5933566    -2.3094917    -0.7966072
C           1.8280149    -3.3988890    -0.2075975
H           1.9302588    -4.1371525    -0.9989097
37
125_C17H19N_4-6-32-33 (-60,) energy =    -714.0080286
C           5.5994126     1.6578281     1.5391721
H           6.3392246     2.4316577     1.7281272
C           5.9100290     0.3178638     1.7522506
H           6.8889759     0.0264718     2.1223007
C           4.9367677    -0.6504466     1.5037910
H           5.1555716    -1.6971940     1.6986839
C           3.6570239    -0.3159105     1.0421819
C           3.3473056     1.0514789     0.8117357
C           4.3364127     2.0157580     1.0667544
H           4.1222846     3.0626184     0.8806367
C          -0.3382987     2.4661252    -0.9502427
H           0.0548494     3.1768441    -1.6924399
H          -1.4312823     2.4880431    -1.0413848
C           0.2042421     1.0638081    -1.2541394
H          -0.0097049     0.7812559    -2.2927265
H          -0.2853012     0.3253477    -0.6066393
C           1.7149990     0.9943912    -1.0148511
H           2.0712220    -0.0259727    -1.1646748
H           2.2390498     1.6366879    -1.7496831
N           2.0521656     1.4190362     0.3550405
C           1.6147820     2.7890625     0.6242018
H           2.1096687     3.5185915    -0.0479559
H           1.8996263     3.0475731     1.6491256
C           0.0958082     2.9101323     0.4523851
H          -0.3945469     2.2824715     1.2078213
H          -0.2063237     3.9477867     0.6431469
C           0.8075359    -3.5276491     0.6648387
H           0.0952630    -4.3440491     0.5791003
C           0.5477712    -2.4549069     1.5221945
H          -0.3664386    -2.4385776     2.1102767
C           1.4582008    -1.4050031     1.6335365
H           1.2514677    -0.5718920     2.2973230
C           2.6534925    -1.4117700     0.8958340
C           2.8994907    -2.4916784     0.0334036
H           3.8154944    -2.5033377    -0.5520818
C           1.9865420    -3.5423110    -0.0803062
H           2.1972681    -4.3692830    -0.7536411
37
125_C17H19N_4-6-32-33 (-45,) energy =    -714.0083192
C           5.6012833     1.6386127     1.4922781
H           6.3458633     2.4092366     1.6751642
C           5.9203673     0.2936754     1.6539087
H           6.9134576    -0.0072198     1.9755315
C           4.9392420    -0.6686300     1.4181299
H           5.1696666    -1.7170336     1.5862832
C           3.6352394    -0.3283158     1.0289581
C           3.3253732     1.0453365     0.8265379
C           4.3218355     2.0036522     1.0737079
H           4.1019507     3.0538074     0.9159715
C          -0.3399487     2.5288726    -0.9207576
H           0.0678843     3.2488757    -1.6458354
H          -1.4317620     2.5657226    -1.0204873
C           0.1881156     1.1261459    -1.2475185
H          -0.0188423     0.8675074    -2.2937015
H          -0.3181360     0.3808028    -0.6210222
C           1.6953863     1.0318477    -0.9957226
H           2.0396958     0.0092618    -1.1597677
H           2.2349898     1.6793373    -1.7143897
N           2.0275958     1.4280873     0.3850455
C           1.6038880     2.7987115     0.6739104
H           2.1108514     3.5333498     0.0165575
H           1.8854648     3.0372973     1.7046073
C           0.0878946     2.9410874     0.4934253
H          -0.4169116     2.3064776     1.2335031
H          -0.2029383     3.9787396     0.7008781
C           0.8512804    -3.6054413     0.6906382
H           0.1599286    -4.4411771     0.6220029
C           0.4870370    -2.4438379     1.3766468
H          -0.4875675    -2.3773077     1.8538599
C           1.3696378    -1.3687543     1.4640832
H           1.0801362    -0.4711826     1.9984738
C           2.6421564    -1.4303315     0.8678706
C           2.9963538    -2.6077039     0.1873851
H           3.9709859    -2.6732674    -0.2891606
C           2.1103352    -3.6821420     0.0955165
H           2.4063627    -4.5783548    -0.4437433
37
125_C17H19N_4-6-32-33 (-30,) energy =    -714.0065174
C           5.5981475     1.6347201     1.4376597
H           6.3432001     2.4059983     1.6152321
C           5.9307605     0.2882921     1.5486339
H           6.9369569    -0.0162912     1.8226104
C           4.9486426    -0.6740348     1.3240126
H           5.2007458    -1.7196511     1.4699951
C           3.6207412    -0.3418487     1.0067008
C           3.3054831     1.0373167     0.8302604
C           4.3028893     1.9964782     1.0713356
H           4.0707548     3.0476849     0.9419920
C          -0.3453060     2.5917693    -0.8872680
H           0.0734716     3.3309616    -1.5862901
H          -1.4359254     2.6390947    -0.9950439
C           0.1764630     1.1963280    -1.2530710
H          -0.0224442     0.9718816    -2.3086375
H          -0.3417720     0.4352684    -0.6559475
C           1.6808049     1.0837994    -0.9909373
H           2.0211182     0.0647130    -1.1835140
H           2.2305712     1.7497248    -1.6845246
N           2.0051584     1.4357508     0.4044067
C           1.5871296     2.8004419     0.7294707
H           2.1012134     3.5506911     0.0958325
H           1.8639163     3.0081675     1.7680833
C           0.0734371     2.9579535     0.5422847
H          -0.4425072     2.3062281     1.2595489
H          -0.2117617     3.9911568     0.7778366
C           0.8776275    -3.6707754     0.7257170
H           0.1988199    -4.5183097     0.6815419
C           0.4422273    -2.4405129     1.2225098
H          -0.5778628    -2.3298371     1.5821461
C           1.3091063    -1.3505332     1.2764649
H           0.9626075    -0.4037723     1.6716361
C           2.6398476    -1.4550175     0.8263072
C           3.0652443    -2.7094716     0.3505209
H           4.0814382    -2.8258271    -0.0145003
C           2.1959759    -3.7983055     0.2891524
H           2.5535994    -4.7477050    -0.1012690
37
125_C17H19N_4-6-32-33 (-15,) energy =    -714.0025721
C           5.5828343     1.6353740     1.3715253
H           6.3177988     2.4177948     1.5417514
C           5.9412050     0.2930030     1.4350744
H           6.9621797    -0.0015753     1.6612095
C           4.9699358    -0.6811937     1.2233231
H           5.2614217    -1.7178999     1.3450704
C           3.6174789    -0.3795511     0.9739750
C           3.2826329     1.0019196     0.8205991
C           4.2700533     1.9737889     1.0546870
H           4.0131892     3.0219342     0.9525019
C          -0.3484754     2.6283636    -0.8741155
H           0.0858781     3.4017656    -1.5249128
H          -1.4363808     2.6823675    -1.0036710
C           0.1800758     1.2524445    -1.2991330
H           0.0086988     1.0850160    -2.3699946
H          -0.3587307     0.4633980    -0.7592212
C           1.6774511     1.1169699    -1.0065397
H           2.0134847     0.1028348    -1.2321717
H           2.2487964     1.8041568    -1.6603886
N           1.9766405     1.4080516     0.4093777
C           1.5501636     2.7576413     0.7857534
H           2.0689542     3.5358684     0.1912143
H           1.8124523     2.9217253     1.8358538
C           0.0397175     2.9206206     0.5807676
H          -0.4880907     2.2320915     1.2536793
H          -0.2529494     3.9397691     0.8634713
C           0.9015335    -3.7569500     0.7661502
H           0.2295970    -4.6108185     0.7466315
C           0.4185062    -2.4779290     1.0417642
H          -0.6368870    -2.3284272     1.2566936
C           1.2790814    -1.3814717     1.0618468
H           0.8902468    -0.4005236     1.2994278
C           2.6569114    -1.5166397     0.7902687
C           3.1249150    -2.8256277     0.5516951
H           4.1723286    -2.9959957     0.3272878
C           2.2646281    -3.9212218     0.5215426
H           2.6672691    -4.9081469     0.3080854
37
125_C17H19N_4-6-32-33 (0,) energy =    -713.9979713
C           5.7408013     1.4354869     0.4879588
H           6.5371481     2.1553551     0.3184568
C           5.9844487     0.2381647     1.1517992
H           6.9779573    -0.0045289     1.5185620
C           4.9426039    -0.6637197     1.3367911
H           5.1884239    -1.5979198     1.8239710
C           3.6308416    -0.4538288     0.8613839
C           3.3753720     0.8283435     0.2761370
C           4.4434627     1.7196669     0.0763269
H           4.2439023     2.6793405    -0.3862826
C          -0.4119290     2.7782205    -0.4645490
H          -0.1342671     3.8015980    -0.1714796
H          -1.4652605     2.8124662    -0.7686200
C           0.4772258     2.3326415    -1.6325640
H           0.4171498     3.0500331    -2.4607589
H           0.1350351     1.3626354    -2.0162935
C           1.9369831     2.2081055    -1.1825985
H           2.5664399     1.8557298    -2.0060369
H           2.2957720     3.2180316    -0.9020560
N           2.0530396     1.2542983    -0.0757351
C           1.2542313     1.6738004     1.0935689
H           1.6480312     2.6264171     1.4974718
H           1.3690879     0.9205168     1.8774847
C          -0.2263517     1.8381277     0.7332944
H          -0.6481413     0.8526713     0.4974094
H          -0.7667138     2.2149699     1.6108319
C           0.8000255    -3.7467997     1.2574125
H           0.1062930    -4.5788185     1.3437032
C           0.4430663    -2.5855858     0.5766844
H          -0.5353413    -2.5058267     0.1088117
C           1.3317658    -1.5156132     0.4734307
H           1.0452088    -0.6451487    -0.0970483
C           2.6162250    -1.5486141     1.0569631
C           2.9655772    -2.7577367     1.7003114
H           3.9386226    -2.8817993     2.1588943
C           2.0763728    -3.8228510     1.8146337
H           2.3922886    -4.7218033     2.3379517
37
125_C17H19N_4-6-32-33 (15,) energy =    -714.0025684
C           5.7941313     1.3759986     0.3815787
H           6.6049767     2.0771200     0.2019450
C           6.0315884     0.1553946     1.0046071
H           7.0329275    -0.1239158     1.3201883
C           4.9710751    -0.7231860     1.2069826
H           5.1935826    -1.6945540     1.6330927
C           3.6559909    -0.4531616     0.7831196
C           3.4101343     0.8414105     0.2283918
C           4.4935507     1.7101260     0.0139235
H           4.3097219     2.6863880    -0.4198022
C          -0.4395323     2.7163257    -0.3799301
H          -0.2203029     3.7170332     0.0211289
H          -1.4867045     2.7302493    -0.7062294
C           0.4934027     2.4345606    -1.5645356
H           0.4179762     3.2311892    -2.3155241
H           0.2014684     1.4966652    -2.0550156
C           1.9498674     2.3216393    -1.0992857
H           2.6006460     2.0703850    -1.9429469
H           2.2721733     3.3110185    -0.7178631
N           2.0858310     1.2745922    -0.0843793
C           1.2504243     1.5533024     1.1003260
H           1.5865807     2.4908197     1.5844277
H           1.3912668     0.7479592     1.8240034
C          -0.2291522     1.6707268     0.7225755
H          -0.5853511     0.6910639     0.3794381
H          -0.8081473     1.9287536     1.6182894
C           0.7770168    -3.6607317     1.2830281
H           0.0749657    -4.4836410     1.3874682
C           0.5472779    -2.6425444     0.3579955
H          -0.3325471    -2.6746283    -0.2802074
C           1.4448052    -1.5839550     0.2276051
H           1.2602963    -0.8155301    -0.5109310
C           2.6020010    -1.4911582     1.0291496
C           2.8292584    -2.5526816     1.9294125
H           3.6968747    -2.5351086     2.5801072
C           1.9281892    -3.6064396     2.0683195
H           2.1330002    -4.3894649     2.7939964
37
125_C17H19N_4-6-32-33 (30,) energy =    -714.0065181
C           5.8191956     1.3502440     0.3384723
H           6.6368653     2.0438912     0.1601779
C           6.0575533     0.1042395     0.9098522
H           7.0645903    -0.2010957     1.1798320
C           4.9877608    -0.7643589     1.1151803
H           5.1888652    -1.7565470     1.5067850
C           3.6696664    -0.4426840     0.7496873
C           3.4255347     0.8608569     0.2263231
C           4.5153548     1.7211236     0.0142764
H           4.3385285     2.7131405    -0.3860526
C          -0.4597350     2.6754419    -0.3274516
H          -0.2707597     3.6650369     0.1145946
H          -1.5041339     2.6746647    -0.6629036
C           0.4899134     2.4648730    -1.5134538
H           0.3996755     3.2872472    -2.2344649
H           0.2264076     1.5387998    -2.0410738
C           1.9453778     2.3688248    -1.0411077
H           2.6063198     2.1631498    -1.8892641
H           2.2455263     3.3495208    -0.6206663
N           2.0974297     1.2886674    -0.0648194
C           1.2483408     1.5027063     1.1224967
H           1.5554611     2.4309078     1.6428361
H           1.4041471     0.6756819     1.8176829
C          -0.2304180     1.5934972     0.7356179
H          -0.5534016     0.6175789     0.3513590
H          -0.8244581     1.8010999     1.6346282
C           0.7573581    -3.5910017     1.2952802
H           0.0446766    -4.4020467     1.4192658
C           0.6417789    -2.7040480     0.2230235
H          -0.1570547    -2.8309920    -0.5035515
C           1.5521477    -1.6607460     0.0645000
H           1.4561762    -0.9847873    -0.7759950
C           2.6049017    -1.4658002     0.9801692
C           2.7168439    -2.3840558     2.0409621
H           3.5094248    -2.2605147     2.7731038
C           1.8016634    -3.4235984     2.2042970
H           1.9083140    -4.1032580     3.0459187
37
125_C17H19N_4-6-32-33 (45,) energy =    -714.0083190
C           5.8439156     1.3300845     0.2904735
H           6.6637028     2.0199572     0.1068311
C           6.0886076     0.0642591     0.8144642
H           7.1014243    -0.2590328     1.0378588
C           5.0147763    -0.7984424     1.0308275
H           5.2044732    -1.8035651     1.3972477
C           3.6925973    -0.4376273     0.7318921
C           3.4434581     0.8715413     0.2339449
C           4.5354414     1.7272357     0.0154251
H           4.3598052     2.7307122    -0.3563841
C          -0.4736715     2.6290447    -0.2720357
H          -0.3085504     3.6103567     0.1972534
H          -1.5166099     2.6139721    -0.6117608
C           0.4840740     2.4712339    -1.4597564
H           0.3782922     3.3104206    -2.1589814
H           0.2421368     1.5537665    -2.0120205
C           1.9403528     2.3922572    -0.9863965
H           2.6054863     2.2186892    -1.8384593
H           2.2233502     3.3676909    -0.5422526
N           2.1109786     1.2926237    -0.0359897
C           1.2553916     1.4590910     1.1531869
H           1.5387804     2.3821852     1.6958522
H           1.4278225     0.6201835     1.8296766
C          -0.2234992     1.5240434     0.7622134
H          -0.5187425     0.5512808     0.3488306
H          -0.8268340     1.6921331     1.6633026
C           0.7248555    -3.5174336     1.2889568
H          -0.0083137    -4.3083979     1.4229950
C           0.7404223    -2.7629418     0.1128779
H           0.0239335    -2.9732503    -0.6773236
C           1.6768634    -1.7455756    -0.0617191
H           1.6834179    -1.1647442    -0.9769391
C           2.6243253    -1.4589255     0.9375820
C           2.6002813    -2.2308939     2.1115500
H           3.3173017    -2.0198205     2.9006170
C           1.6591038    -3.2461899     2.2884001
H           1.6572481    -3.8230943     3.2097176
37
125_C17H19N_4-6-32-33 (60,) energy =    -714.0080282
C           5.4698421     1.7131605     1.7642302
H           6.3031942     2.4111927     1.7745491
C           5.3953112     0.6897534     2.7047274
H           6.1730990     0.5648359     3.4528099
C           4.3146481    -0.1916299     2.6618625
H           4.2622650    -1.0153357     3.3691855
C           3.2992356    -0.0759960     1.7034843
C           3.3703556     0.9783442     0.7537035
C           4.4642179     1.8579993     0.8081431
H           4.5255113     2.6781546     0.1010255
C           0.2742949     1.8980123    -2.1198424
H           0.1987728     2.9881354    -1.9914660
H          -0.4551001     1.6204877    -2.8907993
C           1.6969571     1.5406025    -2.5686014
H           1.9740768     2.1039052    -3.4687711
H           1.7484736     0.4736234    -2.8215299
C           2.7150931     1.8321301    -1.4595401
H           3.7142171     1.5115829    -1.7716103
H           2.7586497     2.9273519    -1.2934854
N           2.3595815     1.1112651    -0.2370494
C           1.0265591     1.4954890     0.2586230
H           1.0156585     2.5723474     0.5183799
H           0.8175724     0.9396244     1.1739234
C          -0.0517463     1.2071618    -0.7895308
H          -0.1124144     0.1214869    -0.9372970
H          -1.0249206     1.5403784    -0.4072256