15
156_C4H9NO_1-0-5-10 (-165,) energy =    -287.8298799
N           1.2070546    -0.7910138    -0.0319594
C           0.8715612     0.6217747    -0.0815147
H           1.7223921     1.2398294     0.2038126
H           0.0528146     0.8316578     0.6174339
H           0.5416321     0.9259741    -1.0870317
C           2.4870175    -1.2889290    -0.1677529
C           3.6433642    -0.3071488    -0.0116032
H           3.5901231     0.2528735     0.9284849
H           3.6732224     0.4176920    -0.8336006
H           4.5646883    -0.8902085    -0.0280195
O           2.7004280    -2.4760215    -0.3894668
C           0.0886262    -1.7019087    -0.2339727
H          -0.6886799    -1.5050503     0.5138582
H           0.4518559    -2.7235144    -0.1340373
H          -0.3535792    -1.5785685    -1.2336278
15
156_C4H9NO_1-0-5-10 (-150,) energy =    -287.8283855
N           1.1946608    -0.7757672     0.0590512
C           0.8524005     0.6347081    -0.0659524
H           1.6871840     1.2684934     0.2354572
H           0.0028578     0.8645973     0.5865663
H           0.5692863     0.8968226    -1.0975981
C           2.4622212    -1.2505872    -0.2351286
C           3.6331387    -0.3035062    -0.0015510
H           3.5576553     0.2329902     0.9497842
H           3.7068722     0.4394751    -0.8049054
H           4.5438593    -0.9039980    -0.0091118
O           2.6448892    -2.3865003    -0.6557987
C           0.0847098    -1.6893023    -0.1932654
H          -0.7568931    -1.4147691     0.4513410
H           0.4041908    -2.7070299     0.0267670
H          -0.2483460    -1.6527948    -1.2413750
15
156_C4H9NO_1-0-5-10 (-135,) energy =    -287.8252975
N           1.2160130    -0.7738183     0.1464217
C           0.8651461     0.6281523    -0.0705241
H           1.6984780     1.2833639     0.1902213
H           0.0151456     0.8949332     0.5662102
H           0.5835572     0.8191302    -1.1180375
C           2.4636797    -1.2369819    -0.2640629
C           3.6616012    -0.3523434     0.0553645
H           3.5528273     0.1858345     1.0013957
H           3.8203836     0.3823750    -0.7435741
H           4.5446138    -0.9929267     0.0959368
O           2.5991445    -2.2938136    -0.8646765
C           0.1022400    -1.6826997    -0.1245956
H          -0.7527018    -1.3816703     0.4891943
H           0.3956742    -2.7009293     0.1300075
H          -0.1973061    -1.6698733    -1.1831255
15
156_C4H9NO_1-0-5-10 (-120,) energy =    -287.8205300
N           1.2109524    -0.7505549     0.1923934
C           0.8225553     0.6334068    -0.0956165
H           1.6449883     1.3195092     0.1217490
H          -0.0260589     0.9127504     0.5370102
H           0.5282535     0.7607014    -1.1493482
C           2.4409614    -1.1696881    -0.3397013
C           3.6607231    -0.3597038     0.0763262
H           3.5096594     0.1917753     1.0075506
H           3.9306370     0.3477714    -0.7169378
H           4.4998855    -1.0504247     0.1913032
O           2.5338040    -2.1016074    -1.1224744
C           0.1115189    -1.6807622    -0.0825939
H          -0.7431907    -1.4004726     0.5411934
H           0.4223090    -2.6961825     0.1662687
H          -0.1959279    -1.6688034    -1.1385655
15
156_C4H9NO_1-0-5-10 (-105,) energy =    -287.8148355
N           1.2368641    -0.7640870     0.1879631
C           0.7855441     0.6089927    -0.0795548
H           1.6045683     1.3203498     0.0595790
H          -0.0120979     0.8702166     0.6231683
H           0.3997311     0.7172509    -1.1056910
C           2.4100493    -1.1260220    -0.5250493
C           3.6979296    -0.5250975     0.0091011
H           3.5355481     0.3662701     0.6196414
H           4.3801477    -0.3056659    -0.8157553
H           4.1770172    -1.2763676     0.6494578
O           2.3940164    -1.8630335    -1.4939182
C           0.1316606    -1.7051878    -0.0393058
H          -0.6735190    -1.4654720     0.6624928
H           0.4741733    -2.7246875     0.1491572
H          -0.2613773    -1.6608983    -1.0653944
15
156_C4H9NO_1-0-5-10 (-90,) energy =    -287.8095720
N           1.2547255    -0.7155993     0.2067420
C           0.7380401     0.6285389    -0.0972951
H           1.5252836     1.3790496     0.0290077
H          -0.0698526     0.8669524     0.6018230
H           0.3495174     0.6989058    -1.1262301
C           2.4082454    -1.0128577    -0.5981925
C           3.7175114    -0.5733929     0.0219540
H           3.6182607     0.3894854     0.5326582
H           4.5014329    -0.5263553    -0.7365340
H           4.0037083    -1.3060430     0.7870592
O           2.3365636    -1.5442396    -1.6877680
C           0.1856636    -1.7058426     0.0024749
H          -0.6139521    -1.5005002     0.7214310
H           0.5747187    -2.7094536     0.1934639
H          -0.2321608    -1.6855665    -1.0146286
15
156_C4H9NO_1-0-5-10 (-75,) energy =    -287.8084226
N           1.2562711    -0.4803266    -0.7340396
C           0.4218184     0.6531614    -0.3172220
H           0.8174430     1.5713694    -0.7569383
H           0.3838368     0.7636959     0.7802313
H          -0.6008184     0.5085447    -0.6819378
C           2.6530963    -0.2125756    -0.6261677
C           3.4529113    -0.9461096     0.4423597
H           4.4484818    -0.5023475     0.4885687
H           3.5598629    -2.0079731     0.1913750
H           2.9730702    -0.8917186     1.4262964
O           3.2040227     0.5055275    -1.4375779
C           0.7755276    -1.7252753    -0.1360137
H           0.7635536    -1.7200517     0.9680870
H           1.3785406    -2.5704684    -0.4772339
H          -0.2510749    -1.8922543    -0.4787277
15
156_C4H9NO_1-0-5-10 (-60,) energy =    -287.8151062
N           1.2732796    -0.4704250    -0.6496970
C           0.3748702     0.6613972    -0.3990876
H           0.8129820     1.5624182    -0.8311986
H           0.2071016     0.8161784     0.6791976
H          -0.5946770     0.4808359    -0.8758764
C           2.6466225    -0.1648227    -0.5353143
C           3.5055896    -1.0332745     0.3751499
H           4.4854138    -0.5611479     0.4587695
H           3.6430706    -2.0330811    -0.0538285
H           3.0670040    -1.1607167     1.3709584
O           3.1561853     0.6821452    -1.2494239
C           0.7765088    -1.6950609    -0.0271918
H           0.6948627    -1.6328302     1.0715821
H           1.4125302    -2.5444307    -0.2847920
H          -0.2235877    -1.8985864    -0.4240755
15
156_C4H9NO_1-0-5-10 (-45,) energy =    -287.8216165
N           1.2923468    -0.4477514    -0.5555974
C           0.3537760     0.6717814    -0.4611608
H           0.8329099     1.5628497    -0.8671750
H           0.0581347     0.8558613     0.5834669
H          -0.5492410     0.4573681    -1.0433175
C           2.6477251    -0.1241493    -0.4400315
C           3.5483035    -1.0931113     0.3162987
H           4.5309488    -0.6280035     0.4036160
H           3.6615937    -2.0356418    -0.2327471
H           3.1641186    -1.3351218     1.3132626
O           3.1230798     0.8306376    -1.0372674
C           0.7699651    -1.6640911     0.0581122
H           0.6203531    -1.5728049     1.1469998
H           1.4289977    -2.5119193    -0.1359094
H          -0.2013230    -1.8892970    -0.3945884
15
156_C4H9NO_1-0-5-10 (-30,) energy =    -287.8266330
N           1.2955942    -0.4278622    -0.4581448
C           0.3381695     0.6739878    -0.5110260
H           0.8478333     1.5549379    -0.8995677
H          -0.0652665     0.8943568     0.4888948
H          -0.4973216     0.4176702    -1.1722786
C           2.6398355    -0.0967144    -0.3529928
C           3.5734978    -1.1337471     0.2601105
H           4.5665184    -0.6864162     0.3141247
H           3.6313921    -2.0357822    -0.3605776
H           3.2566270    -1.4404227     1.2631635
O           3.0842852     0.9417847    -0.8257662
C           0.7537300    -1.6483204     0.1239236
H           0.5345094    -1.5484491     1.1995853
H           1.4366288    -2.4868733    -0.0177763
H          -0.1834813    -1.8936468    -0.3869146
15
156_C4H9NO_1-0-5-10 (-15,) energy =    -287.8294844
N           1.2667960    -0.4199363    -0.3377239
C           0.3046980     0.6565197    -0.5353275
H           0.8385867     1.5295608    -0.9077879
H          -0.1991805     0.9127231     0.4082758
H          -0.4581969     0.3530718    -1.2622786
C           2.6084257    -0.0963856    -0.2779877
C           3.5700029    -1.1769559     0.2042738
H           4.5725191    -0.7485755     0.1855417
H           3.5519259    -2.0586532    -0.4467608
H           3.3407834    -1.5091647     1.2231780
O           3.0288010     0.9941715    -0.6482866
C           0.7075531    -1.6528201     0.1916401
H           0.3666805    -1.5422281     1.2333165
H           1.4324275    -2.4655862     0.1477227
H          -0.1582619    -1.9440855    -0.4142384
15
156_C4H9NO_1-0-5-10 (0,) energy =    -287.8302351
N           1.2315916    -0.4095103    -0.0648007
C           0.2780468     0.4805950     0.5794078
H           0.8347291     1.2342186     1.1344350
H          -0.3692807    -0.0801273     1.2672775
H          -0.3592927     0.9708570    -0.1690400
C           2.5797761    -0.1817319     0.1042852
C           3.5500952    -1.1356635    -0.5854097
H           3.4190894    -2.1710872    -0.2512491
H           4.5574963    -0.8072662    -0.3283452
H           3.4400721    -1.1173388    -1.6757258
O           2.9997052     0.7503257     0.7826272
C           0.6506278    -1.4797679    -0.8537437
H           0.0181687    -1.0711350    -1.6546752
H           0.0198974    -2.1261267    -0.2269006
H           1.4213687    -2.0976491    -1.3117581
15
156_C4H9NO_1-0-5-10 (15,) energy =    -287.8294844
N           1.2670300    -0.4862323     0.0827642
C           0.3034215     0.4786274     0.5965163
H           0.8349376     1.1943720     1.2219482
H          -0.4631959    -0.0325494     1.1911113
H          -0.1955434     1.0129440    -0.2253480
C           2.6088161    -0.1616082     0.1322909
C           3.5734198    -1.0429309    -0.6536156
H           3.5522676    -2.0819751    -0.3050435
H           4.5756337    -0.6422413    -0.4989728
H           3.3497693    -1.0457700    -1.7264821
O           3.0267363     0.7619352     0.8219008
C           0.7111528    -1.4961831    -0.8026631
H           0.3757771    -1.0705047    -1.7617437
H          -0.1577445    -1.9584459    -0.3200758
H           1.4361406    -2.2840161    -1.0068002
15
156_C4H9NO_1-0-5-10 (30,) energy =    -287.8266330
N           1.2951858    -0.5308059     0.1950677
C           0.3369993     0.5026677     0.5789205
H           0.8441939     1.2210323     1.2219608
H          -0.5018826     0.0566073     1.1250947
H          -0.0612105     1.0200585    -0.3070256
C           2.6398188    -0.1849917     0.2037278
C           3.5771945    -0.9846446    -0.6934566
H           3.6321906    -2.0338117    -0.3796149
H           4.5702877    -0.5435522    -0.6022656
H           3.2658018    -0.9679524    -1.7438510
O           3.0812815     0.6575039     0.9749882
C           0.7569731    -1.5127661    -0.7366081
H           0.5434332    -1.0869991    -1.7306922
H          -0.1828324    -1.9020344    -0.3307244
H           1.4394845    -2.3551228    -0.8558306
15
156_C4H9NO_1-0-5-10 (45,) energy =    -287.8216165
N           1.2914285    -0.5796681     0.2816781
C           0.3528720     0.5158689     0.5308709
H           0.8294411     1.2385321     1.1934864
H          -0.5531319     0.1340680     1.0143006
H           0.0627075     1.0123290    -0.4082074
C           2.6472576    -0.2378499     0.2781689
C           3.5522814    -0.9286821    -0.7345734
H           3.6630748    -1.9944427    -0.5010589
H           4.5351676    -0.4604264    -0.6696690
H           3.1735129    -0.8522443    -1.7596566
O           3.1190002     0.4867064     1.1423146
C           0.7728645    -1.5480115    -0.6787420
H           0.6290056    -1.1264345    -1.6876873
H          -0.2007167    -1.9002310    -0.3221790
H           1.4312362    -2.4152398    -0.7511483
15
156_C4H9NO_1-0-5-10 (60,) energy =    -287.8151062
N           1.2718668    -0.6301291     0.3641544
C           0.3743027     0.5250358     0.4687199
H           0.8097128     1.2492003     1.1590131
H          -0.5976856     0.2079060     0.8619374
H           0.2121974     1.0038017    -0.5107229
C           2.6456653    -0.3058363     0.3563463
C           3.5098540    -0.8536135    -0.7724124
H           3.6455503    -1.9370141    -0.6705941
H           4.4898791    -0.3797703    -0.7018769
H           3.0766057    -0.6684865    -1.7614808
O           3.1510417     0.2801542     1.2987741
C           0.7789658    -1.6036918    -0.6070544
H           0.7031179    -1.2068001    -1.6339758
H          -0.2231281    -1.9181156    -0.2970889
H           1.4140018    -2.4918825    -0.6195694
15
156_C4H9NO_1-0-5-10 (75,) energy =    -287.8084225
N           1.2544184    -0.6654454     0.4412915
C           0.4216879     0.5422874     0.3885292
H           0.8145536     1.2805204     1.0911271
H          -0.6028111     0.2938519     0.6858496
H           0.3894995     0.9846829    -0.6220718
C           2.6516779    -0.3791917     0.4281613
C           3.4574958    -0.7499478    -0.8098713
H           3.5636009    -1.8376938    -0.8966849
H           4.4530939    -0.3146396    -0.7123418
H           2.9828654    -0.3953414    -1.7319979
O           3.1979579     0.0542361     1.4238004
C           0.7774210    -1.6658812    -0.5127776
H           0.7713139    -1.3216944    -1.5619236
H          -0.2509136    -1.9288364    -0.2432777
H           1.3789921    -2.5757550    -0.4445923
15
156_C4H9NO_1-0-5-10 (90,) energy =    -287.8095720
N           1.2582604    -0.6002853    -0.5262239
C           0.7393030     0.5860417     0.1733626
H           1.5268354     1.3381444     0.2878419
H           0.3452853     0.3373479     1.1721169
H          -0.0649823     1.0286464    -0.4228958
C           2.4076350    -1.1317993     0.1544531
C           3.7199594    -0.5245876    -0.2938628
H           4.4998174    -0.7137578     0.4464652
H           3.6229472     0.5487375    -0.4845611
H           4.0105786    -0.9870825    -1.2455507
O           2.3304290    -1.9721381     1.0276940
C           0.1886181    -1.6041513    -0.6416289
H          -0.6072686    -1.1869334    -1.2668828
H          -0.2346133    -1.8968445     0.3303246
H           0.5791782    -2.5010020    -1.1296836
15
156_C4H9NO_1-0-5-10 (105,) energy =    -287.8148355
N           1.2403234    -0.6521768    -0.5233430
C           0.7869095     0.5728353     0.1507229
H           1.6063090     1.2915836     0.2411278
H           0.3955984     0.3610570     1.1584691
H          -0.0071182     1.0382420    -0.4419046
C           2.4098839    -1.2170210     0.0500909
C           3.7002856    -0.4825522    -0.2668972
H           4.3780042    -0.5279366     0.5890221
H           3.5407082     0.5534654    -0.5749004
H           4.1831395    -1.0013157    -1.1045875
O           2.3890697    -2.2160259     0.7455806
C           0.1343940    -1.6163025    -0.6019485
H          -0.6671653    -1.1716390    -1.2003432
H          -0.2641099    -1.8889330     0.3860623
H           0.4784073    -2.5289954    -1.0927231
15
156_C4H9NO_1-0-5-10 (120,) energy =    -287.8205300
N           1.2144248    -0.6379083    -0.5235363
C           0.8238274     0.5910909     0.1737058
H           1.6470688     1.3098302     0.1819251
H           0.5238692     0.3888422     1.2140368
H          -0.0215500     1.0522732    -0.3469126
C           2.4417950    -1.2016779    -0.1395497
C           3.6633515    -0.3044745    -0.2802529
H           3.9286912     0.1247731     0.6933919
H           3.5169702     0.5065951    -0.9977952
H           4.5034556    -0.9274458    -0.5974912
O           2.5309346    -2.3291207     0.3195298
C           0.1139998    -1.6063259    -0.5533566
H          -0.7375206    -1.1469527    -1.0653044
H          -0.1990583    -1.9190040     0.4536040
H           0.4266030    -2.4965446    -1.1005232
15
156_C4H9NO_1-0-5-10 (135,) energy =    -287.8252975
N           1.2192521    -0.6741755    -0.4869093
C           0.8665523     0.5937511     0.1484329
H           1.7009373     1.2964092     0.1059358
H           0.5793092     0.4540028     1.2024780
H           0.0198160     1.0442399    -0.3799618
C           2.4649468    -1.2425048    -0.2320821
C           3.6641159    -0.3039128    -0.2580388
H           3.8182921     0.1496367     0.7287989
H           3.5601065     0.4990052    -0.9935298
H           4.5476448    -0.9020815    -0.4888530
O           2.5977356    -2.4329048     0.0154977
C           0.1044996    -1.6210637    -0.5140306
H          -0.7473164    -1.1450258    -1.0100949
H          -0.2006721    -1.9337112     0.4956722
H           0.3997802    -2.5121719    -1.0676131
15
156_C4H9NO_1-0-5-10 (150,) energy =    -287.8283855
N           1.1974330    -0.7028511    -0.4044570
C           0.8538367     0.6014075     0.1460494
H           1.6899205     1.2961455     0.0583087
H           0.5650922     0.5342235     1.2068332
H           0.0076827     1.0216651    -0.4087124
C           2.4636442    -1.2465654    -0.2637657
C           3.6353037    -0.2748661    -0.1890221
H           3.7044174     0.1853118     0.8041015
H           3.5645813     0.5280238    -0.9299213
H           4.5462711    -0.8496901    -0.3615793
O           2.6446516    -2.4569909    -0.2114680
C           0.0865977    -1.6484174    -0.4508099
H          -0.7516775    -1.1881471    -0.9843157
H          -0.2520869    -1.9352619     0.5560697
H           0.4077562    -2.5497148    -0.9711661
15
156_C4H9NO_1-0-5-10 (165,) energy =    -287.8298799
N           1.2093635    -0.7453553    -0.3226140
C           0.8730152     0.5842520     0.1569341
H           1.7247549     1.2593485     0.0787495
H           0.5385255     0.5653787     1.2058541
H           0.0572004     0.9992946    -0.4473165
C           2.4888444    -1.2624196    -0.3396927
C           3.6454513    -0.2814789    -0.1803845
H           3.6704120     0.1555111     0.8248144
H           3.5970132     0.5405210    -0.9029952
H           4.5670142    -0.8424025    -0.3390036
O           2.7016849    -2.4604383    -0.4923652
C           0.0902826    -1.6728911    -0.4159720
H          -0.6830134    -1.2549636    -1.0713861
H          -0.3575258    -1.8618072     0.5708841
H           0.4545809    -2.6149292    -0.8227113
15
156_C4H9NO_1-0-5-10 (180,) energy =    -287.8302350
N           1.1584421    -0.7347403    -0.1732331
C           0.7976224     0.6691756    -0.1080677
H           1.6801651     1.3015796    -0.0262564
H           0.1526830     0.8652655     0.7604930
H           0.2440772     0.9682073    -1.0094252
C           2.4410643    -1.2348449    -0.1174161
C           3.5846797    -0.2352554     0.0246759
H           3.5049683     0.3532336     0.9457749
H           3.6296694     0.4633840    -0.8184452
H           4.5101032    -0.8110748     0.0538978
O           2.6707019    -2.4384503    -0.1787415
C           0.0435505    -1.6608062    -0.3000424
H          -0.6413201    -1.5588735     0.5527206
H           0.4421166    -2.6737769    -0.3298309
H          -0.5219930    -1.4609089    -1.2203355
