18
275_C6H8N2O2_1-0-10-11 (-165,) energy =    -493.4028685
C           2.3804899    -0.8752936    -1.1755449
N           1.0654020    -0.6098421    -0.9164163
C          -0.0097743    -1.3205461    -1.5798034
H          -0.7794067    -0.6201409    -1.9230220
H          -0.4801495    -2.0636259    -0.9213896
H           0.4170853    -1.8361918    -2.4410826
H           0.8537696    -0.0182031    -0.1229754
C           3.2707321     0.7020575     0.7462861
O           2.0927538     0.9443369     1.4086316
H           2.2613848     1.5677923     2.1301363
C           3.3509658    -0.1312771    -0.3634275
N           4.6690802    -0.1062687    -0.7717102
H           4.9770397    -0.6571286    -1.5611731
C           5.4063937     0.6828197     0.0505398
H           6.4676958     0.8196741    -0.0977846
C           4.5637145     1.2112256     1.0197790
H           4.8485474     1.8805109     1.8212867
O           2.7647055    -1.6364131    -2.0706122
18
275_C6H8N2O2_1-0-10-11 (-150,) energy =    -493.3998199
C           2.3931267    -0.9583513    -1.1066311
N           1.0929173    -0.5517600    -0.9813087
C           0.0033157    -1.2700445    -1.6155663
H          -0.7167165    -0.5656965    -2.0459621
H          -0.5254434    -1.9275297    -0.9116871
H           0.4299570    -1.8805019    -2.4124821
H           0.8806112     0.0842895    -0.2225450
C           3.2806004     0.6382110     0.7948776
O           2.1141600     0.8214253     1.4962868
H           2.2740941     1.4636895     2.2032479
C           3.3702714    -0.2047174    -0.3060176
N           4.6600605    -0.0793961    -0.7841590
H           4.9823902    -0.6298232    -1.5678447
C           5.3793973     0.7611771     0.0035553
H           6.4215574     0.9675960    -0.1924136
C           4.5474298     1.2354571     1.0084415
H           4.8212441     1.9287136     1.7932577
O           2.7687108    -1.8112772    -1.9169941
18
275_C6H8N2O2_1-0-10-11 (-135,) energy =    -493.3949887
C           2.3847801    -1.0429542    -1.0131094
N           1.1228639    -0.5106734    -1.0419169
C           0.0128273    -1.2224685    -1.6511143
H          -0.6471475    -0.5176877    -2.1674332
H          -0.5776947    -1.7838919    -0.9138722
H           0.4281967    -1.9246116    -2.3750325
H           0.9138242     0.1978162    -0.3491851
C           3.2776730     0.5834652     0.8541315
O           2.1273458     0.7162766     1.5927934
H           2.2977107     1.3310979     2.3214819
C           3.3738845    -0.2668596    -0.2394033
N           4.6266295    -0.0511676    -0.7844441
H           4.9673598    -0.5996519    -1.5612832
C           5.3274684     0.8357222    -0.0289989
H           6.3451918     1.1042481    -0.2723823
C           4.5132690     1.2609673     1.0098798
H           4.7753986     1.9775424     1.7775924
O           2.7331101    -2.0006184    -1.7075441
18
275_C6H8N2O2_1-0-10-11 (-120,) energy =    -493.3891224
C           2.3731324    -1.1113730    -0.9160411
N           1.1712416    -0.4833251    -1.1168094
C           0.0366083    -1.1840913    -1.6951226
H          -0.5321961    -0.5068384    -2.3403446
H          -0.6363715    -1.5915686    -0.9283273
H           0.4282124    -2.0086725    -2.2919697
H           0.9842322     0.3262710    -0.5388367
C           3.2950035     0.5309957     0.9184989
O           2.1771161     0.6018234     1.7127702
H           2.3786566     1.1637618     2.4753983
C           3.3803945    -0.3003065    -0.1881610
N           4.5863564    -0.0034096    -0.8004245
H           4.9360037    -0.5329647    -1.5858577
C           5.2803646     0.9087509    -0.0642206
H           6.2697545     1.2313338    -0.3543004
C           4.5010084     1.2732989     1.0205930
H           4.7624910     1.9946218     1.7841063
O           2.6704041    -2.1809832    -1.4480403
18
275_C6H8N2O2_1-0-10-11 (-105,) energy =    -493.3836500
C           2.3349577    -1.1571943    -0.8209368
N           1.2108505    -0.4840704    -1.2210415
C           0.0540843    -1.1752463    -1.7653834
H          -0.3848871    -0.5907382    -2.5804946
H          -0.7158451    -1.3559306    -1.0033973
H           0.3972465    -2.1358247    -2.1516128
H           1.0843942     0.4485469    -0.8515438
C           3.3314973     0.4871933     0.9721320
O           2.2792112     0.4803237     1.8530452
H           2.5466825     0.9611922     2.6498593
C           3.3634744    -0.2871070    -0.1746646
N           4.5149097     0.0735417    -0.8560143
H           4.8432422    -0.4126672    -1.6771311
C           5.2322648     0.9781401    -0.1264922
H           6.1873466     1.3468406    -0.4712725
C           4.5185751     1.2696729     1.0205389
H           4.8067877     1.9695384     1.7943312
O           2.5461160    -2.3342466    -1.1006492
18
275_C6H8N2O2_1-0-10-11 (-90,) energy =    -493.3813053
C           2.4069381    -0.8847429    -0.5774016
N           1.4078147    -0.3081383    -1.3115379
C           0.3049972    -1.0609838    -1.8826711
H           0.2612253    -0.9358057    -2.9710030
H          -0.6538125    -0.7469030    -1.4530510
H           0.4735804    -2.1128248    -1.6479259
H           1.4196566     0.6982859    -1.3980361
C           3.5217775     0.6211089     1.2276683
O           2.6366029     0.4877266     2.2642601
H           2.1485609    -0.3422194     2.1418970
C           3.4128952     0.0931904    -0.0484779
N           4.5601836     0.4691567    -0.7312284
H           4.7969070     0.1653560    -1.6627078
C           5.3471696     1.2481499     0.0745617
H           6.2815365     1.6546189    -0.2843114
C           4.7257351     1.3711129     1.3004270
H           5.0840675     1.9199299     2.1594295
O           2.4480244    -2.0867089    -0.3275340
18
275_C6H8N2O2_1-0-10-11 (-75,) energy =    -493.3854374
C           2.2863464    -0.7177830    -0.4609978
N           1.4308951    -0.3110260    -1.4468563
C           0.3394134    -1.1302926    -1.9424968
H           0.4462672    -1.3360585    -3.0144215
H          -0.6265214    -0.6405860    -1.7717821
H           0.3618314    -2.0704494    -1.3901475
H           1.5556324     0.6207130    -1.8165005
C           3.5729973     0.5842816     1.2877032
O           2.7931928     0.2595334     2.3537856
H           2.2973105    -0.5408291     2.0973523
C           3.3097720     0.2756983    -0.0447882
N           4.4550349     0.6332859    -0.7540936
H           4.5703268     0.5361601    -1.7508820
C           5.3315456     1.2731937     0.0762023
H           6.2556608     1.6851095    -0.3033239
C           4.8127109     1.2667219     1.3574318
H           5.2772703     1.6638381     2.2484014
O           2.1149307    -1.7618442     0.1760127
18
275_C6H8N2O2_1-0-10-11 (-60,) energy =    -493.3913709
C           2.2157489    -0.6638261    -0.3879372
N           1.4796979    -0.3394381    -1.4952034
C           0.3782503    -1.1505655    -1.9815206
H           0.5360129    -1.4564421    -3.0226492
H          -0.5719050    -0.6071660    -1.9130904
H           0.3217809    -2.0366460    -1.3483531
H           1.6785169     0.5396105    -1.9509843
C           3.6069986     0.5276435     1.3414357
O           2.8934754     0.1349154     2.4229793
H           2.3348062    -0.6083090     2.1132851
C           3.2673267     0.2874708     0.0084188
N           4.3678423     0.6955840    -0.7474777
H           4.4404575     0.6311667    -1.7507266
C           5.2860875     1.2943808     0.0657013
H           6.1893479     1.7259540    -0.3414934
C           4.8430012     1.2185348     1.3738220
H           5.3586091     1.5724106     2.2547956
O           1.9044843    -1.6041508     0.3573805
18
275_C6H8N2O2_1-0-10-11 (-45,) energy =    -493.3969321
C           2.1705282    -0.6278100    -0.3452978
N           1.5374566    -0.3727301    -1.5338481
C           0.4040800    -1.1486405    -2.0043533
H           0.5873150    -1.5545278    -3.0063117
H          -0.5090244    -0.5414134    -2.0303992
H           0.2579146    -1.9704055    -1.3026136
H           1.7783651     0.4775542    -2.0224789
C           3.6467065     0.4769906     1.3674766
O           2.9824993     0.0426878     2.4595478
H           2.3638445    -0.6456632     2.1276743
C           3.2536536     0.2725443     0.0421057
N           4.2949360     0.7569668    -0.7518438
H           4.3549836     0.6624093    -1.7532543
C           5.2445181     1.3317639     0.0418079
H           6.1225098     1.7932235    -0.3874496
C           4.8684062     1.1939816     1.3661466
H           5.4167884     1.5323302     2.2332130
O           1.7564391    -1.4876464     0.4506676
18
275_C6H8N2O2_1-0-10-11 (-30,) energy =    -493.4013489
C           2.1186992    -0.6011734    -0.4172126
N           1.6362566    -0.4352337    -1.6922543
C           0.4288755    -1.1143194    -2.1340897
H           0.4572260    -1.2478377    -3.2195467
H          -0.4814209    -0.5618326    -1.8644324
H           0.3881172    -2.0906227    -1.6499536
H           1.9028826     0.4098558    -2.1780747
C           3.6118212     0.4251888     1.3265857
O           2.9179251     0.0088839     2.4033024
H           2.2476165    -0.6202442     2.0476022
C           3.2448944     0.2169548    -0.0051002
N           4.2761280     0.7348076    -0.7903564
H           4.3932759     0.5603412    -1.7761867
C           5.2250698     1.2871996     0.0222088
H           6.1127473     1.7440363    -0.3919765
C           4.8359824     1.1402625     1.3414456
H           5.3712988     1.4818465     2.2153575
O           1.5618432    -1.3559972     0.4009930
18
275_C6H8N2O2_1-0-10-11 (-15,) energy =    -493.4040566
C           2.0985471    -0.5895405    -0.3886111
N           1.6807816    -0.4929258    -1.6954920
C           0.4342664    -1.1102539    -2.1226797
H           0.4723122    -1.3036574    -3.1986712
H          -0.4410640    -0.4845502    -1.9010333
H           0.3196712    -2.0542867    -1.5891565
H           1.9860964     0.3237759    -2.2076895
C           3.6479460     0.3736263     1.3377615
O           2.9777552    -0.0652997     2.4177062
H           2.2678812    -0.6491684     2.0563042
C           3.2683026     0.1628674     0.0113070
N           4.2338633     0.7765890    -0.7902123
H           4.3800942     0.5602095    -1.7647383
C           5.1884688     1.3348350     0.0170034
H           6.0487330     1.8323615    -0.4081671
C           4.8447061     1.1370570     1.3403735
H           5.3825342     1.4881390     2.2090065
O           1.4813957    -1.2745304     0.4494744
18
275_C6H8N2O2_1-0-10-11 (0,) energy =    -493.4047730
C           2.0774938    -0.5633462    -0.3785459
N           1.7064158    -0.5443586    -1.7029030
C           0.4258642    -1.0986817    -2.1179205
H           0.4718436    -1.3628400    -3.1783474
H          -0.4075923    -0.4011984    -1.9573506
H           0.2355321    -1.9965051    -1.5292633
H           2.0733344     0.2135654    -2.2631555
C           3.6775030     0.3173875     1.3350509
O           3.0217219    -0.1438285     2.4117211
H           2.2714796    -0.6739203     2.0429933
C           3.2974918     0.1107515     0.0073894
N           4.2066768     0.8145751    -0.7904193
H           4.3765239     0.6051548    -1.7634735
C           5.1584820     1.3756388     0.0214688
H           5.9949212     1.9141542    -0.4016571
C           4.8489233     1.1209711     1.3419618
H           5.3844163     1.4698994     2.2129068
O           1.4065054    -1.1710949     0.4796953
18
275_C6H8N2O2_1-0-10-11 (15,) energy =    -493.4040564
C           1.8797055    -0.3493848    -0.3897194
N           1.6342609    -0.4055110    -1.7418952
C           0.4736050    -1.1165119    -2.2562995
H           0.6510337    -2.1966216    -2.3496786
H           0.2021520    -0.7127942    -3.2360885
H          -0.3537184    -0.9678677    -1.5617543
H           2.4399784    -0.3440222    -2.3498302
C           3.6237352     0.1350568     1.3516776
O           3.0455379    -0.5514606     2.3529551
H           2.1668646    -0.8282032     1.9970180
C           3.1216377     0.2465101     0.0542335
N           4.0191856     1.0420533    -0.6619294
H           3.7910025     1.5183322    -1.5215815
C           5.0351224     1.4233697     0.1729902
H           5.8220074     2.0761741    -0.1777383
C           4.8452363     0.8552467     1.4178795
H           5.4942206     0.9447548     2.2768625
O           1.0827346    -0.8223883     0.4430338
18
275_C6H8N2O2_1-0-10-11 (30,) energy =    -493.4013508
C           1.8732017    -0.3182197    -0.4111347
N           1.6657013    -0.4670529    -1.7606842
C           0.4687076    -1.1162603    -2.2704854
H           0.5714786    -2.2093085    -2.3062682
H           0.2475576    -0.7452568    -3.2756312
H          -0.3609819    -0.8758585    -1.6049027
H           2.4839129    -0.4614090    -2.3538766
C           3.6512399     0.0848800     1.3221288
O           3.0827338    -0.6324522     2.3106612
H           2.1822720    -0.8558087     1.9784984
C           3.1546002     0.2095159     0.0227488
N           3.9986759     1.0979262    -0.6449505
H           3.7918349     1.5357360    -1.5290208
C           5.0091410     1.4734416     0.1943002
H           5.7730488     2.1645319    -0.1327925
C           4.8447550     0.8445715     1.4152646
H           5.4863161     0.9325044     2.2799519
O           1.0386249    -0.7031841     0.4278115
18
275_C6H8N2O2_1-0-10-11 (45,) energy =    -493.3969332
C           1.8358158    -0.2828276    -0.3990754
N           1.6731876    -0.5937993    -1.7239747
C           0.4313725    -1.1192195    -2.2623053
H           0.5539559    -2.1535650    -2.6063020
H           0.0701320    -0.5090632    -3.0985979
H          -0.3051073    -1.1030151    -1.4582992
H           2.4948678    -0.5967559    -2.3110195
C           3.6321278     0.0459748     1.3326147
O           3.0407438    -0.6628618     2.3176087
H           2.1212608    -0.8186286     2.0061690
C           3.1583384     0.1709968     0.0238457
N           3.9904689     1.0996339    -0.6042730
H           3.8473436     1.4779720    -1.5271772
C           4.9985882     1.4557748     0.2435444
H           5.7679906     2.1479602    -0.0678625
C           4.8207519     0.8071319     1.4526584
H           5.4439927     0.8927829     2.3308629
O           0.9540259    -0.5148520     0.4452935
18
275_C6H8N2O2_1-0-10-11 (60,) energy =    -493.3913717
C           1.8303859    -0.2189750    -0.4267342
N           1.6872015    -0.6753077    -1.7090419
C           0.4249782    -1.1511042    -2.2457149
H           0.4922079    -2.2083736    -2.5286163
H           0.1166528    -0.5696854    -3.1230304
H          -0.3235616    -1.0442425    -1.4598834
H           2.5160491    -0.7330263    -2.2832015
C           3.6665702     0.0061088     1.2822668
O           3.0884028    -0.7535333     2.2422161
H           2.1495130    -0.8432715     1.9756163
C           3.1853408     0.1853368    -0.0163811
N           3.9787498     1.1839639    -0.5846310
H           3.8693024     1.5533886    -1.5160057
C           4.9954901     1.5031988     0.2681081
H           5.7513488     2.2223870    -0.0137292
C           4.8405826     0.7827369     1.4386780
H           5.4638004     0.8350611     2.3195998
O           0.9211145    -0.3117096     0.4108148
18
275_C6H8N2O2_1-0-10-11 (75,) energy =    -493.3854374
C           1.7972773    -0.1108862    -0.4651392
N           1.6869236    -0.7356871    -1.6761637
C           0.4236233    -1.2006632    -2.2202708
H           0.4341497    -2.2878799    -2.3614555
H           0.2002261    -0.7220779    -3.1813806
H          -0.3543585    -0.9453026    -1.4998410
H           2.5389284    -0.9077479    -2.1907669
C           3.6870175    -0.0388574     1.2184152
O           3.1384704    -0.8860420     2.1303340
H           2.1815241    -0.9109586     1.9412311
C           3.1777949     0.2448994    -0.0464678
N           3.9521244     1.2908833    -0.5451100
H           3.8312980     1.7174494    -1.4505108
C           4.9892425     1.5450278     0.3075910
H           5.7399137     2.2831323     0.0638981
C           4.8600730     0.7306092     1.4169946
H           5.5002996     0.7115822     2.2871103
O           0.8475767    -0.0106509     0.3178825
18
275_C6H8N2O2_1-0-10-11 (90,) energy =    -493.3813060
C           1.6931582     0.0937300    -0.5129348
N           1.6884203    -0.7964074    -1.5508442
C           0.4712082    -1.2749791    -2.1821361
H           0.3513776    -2.3562021    -2.0436284
H           0.4691401    -1.0550704    -3.2562114
H          -0.3651063    -0.7598836    -1.7076352
H           2.5793051    -1.1766347    -1.8376581
C           3.6906831    -0.0818227     1.1443853
O           3.2615800    -1.0894582     1.9668444
H           2.2934762    -1.1332368     1.9137319
C           3.0625797     0.4075340     0.0107938
N           3.8558203     1.4404985    -0.4661633
H           3.6122176     2.0378884    -1.2406094
C           4.9728406     1.5687515     0.3157257
H           5.7252584     2.3117349     0.0946033
C           4.9070996     0.6290898     1.3240658
H           5.6306262     0.4662067     2.1098567
O           0.6670582     0.5527884    -0.0177887
18
275_C6H8N2O2_1-0-10-11 (105,) energy =    -493.3836500
C           2.2106971    -0.3008748    -1.4556162
N           1.2959263    -1.0702113    -0.7862045
C           0.1170031    -1.6089260    -1.4435216
H          -0.7700480    -0.9824897    -1.2798799
H          -0.0905058    -2.6192657    -1.0762258
H           0.3263256    -1.6475882    -2.5132570
H           1.2946127    -0.9996298     0.2224140
C           3.2388274     1.1265719     0.4982380
O           2.0928393     1.7656468     0.9003028
H           2.3328757     2.4358808     1.5567000
C           3.2839165     0.2614687    -0.5812390
N           4.5644425    -0.2675738    -0.6030306
H           4.9065775    -0.8492032    -1.3534206
C           5.3298189     0.3064373     0.3715509
H           6.3746473     0.0566446     0.4852697
C           4.5320485     1.1777462     1.0887733
H           4.8358925     1.7702172     1.9421722
O           2.2369809    -0.2042590    -2.6796479
18
275_C6H8N2O2_1-0-10-11 (120,) energy =    -493.3891224
C           2.2693393    -0.3961286    -1.4461297
N           1.2432422    -0.9793469    -0.7487945
C           0.0887372    -1.5434157    -1.4283940
H          -0.7465309    -0.8325301    -1.4907123
H          -0.2512700    -2.4427003    -0.9047487
H           0.3991955    -1.8091479    -2.4395893
H           1.1317009    -0.6895153     0.2145473
C           3.2187444     1.0572355     0.5285001
O           2.0351429     1.5811741     0.9869003
H           2.2306794     2.1847680     1.7186346
C           3.2997773     0.2554623    -0.6000583
N           4.6121276    -0.1808561    -0.6687662
H           4.9620811    -0.7130230    -1.4522947
C           5.3552833     0.3930953     0.3181379
H           6.4174887     0.2139035     0.4000506
C           4.5156108     1.1735656     1.0946200
H           4.7988143     1.7455257     1.9688564
O           2.4338347    -0.5511202    -2.6562466
18
275_C6H8N2O2_1-0-10-11 (135,) energy =    -493.3949887
C           2.3066190    -0.5043192    -1.4122703
N           1.1808513    -0.9101135    -0.7455138
C           0.0524711    -1.4957667    -1.4481686
H          -0.7269682    -0.7554728    -1.6759350
H          -0.3888085    -2.2977662    -0.8473873
H           0.4260804    -1.9104789    -2.3851981
H           1.0134729    -0.4883944     0.1598426
C           3.2204071     0.9789138     0.5610813
O           2.0243085     1.4274183     1.0657633
H           2.2039354     1.9788427     1.8414450
C           3.3066592     0.1967249    -0.5829772
N           4.6403218    -0.1453093    -0.7145871
H           4.9769410    -0.6658130    -1.5121927
C           5.3828134     0.4549753     0.2533037
H           6.4562047     0.3398539     0.2943113
C           4.5267496     1.1690780     1.0780662
H           4.8091339     1.7464252     1.9489876
O           2.5637396    -0.8338194    -2.5724488
18
275_C6H8N2O2_1-0-10-11 (150,) energy =    -493.3998199
C           2.3431611    -0.6141770    -1.3615939
N           1.1357933    -0.8471994    -0.7619804
C           0.0295217    -1.4509513    -1.4810724
H          -0.7029968    -0.7044814    -1.8180003
H          -0.4820538    -2.1828142    -0.8466744
H           0.4410477    -1.9575509    -2.3550053
H           0.9428132    -0.3439425     0.0952525
C           3.2414348     0.9085790     0.5945899
O           2.0440617     1.3051516     1.1378737
H           2.2215689     1.8265475     1.9344376
C           3.3237227     0.1162109    -0.5437973
N           4.6675731    -0.1311177    -0.7457203
H           4.9869006    -0.6609854    -1.5446578
C           5.4150541     0.5157188     0.1856095
H           6.4942558     0.4668602     0.1788271
C           4.5554116     1.1810441     1.0488985
H           4.8425034     1.7830961     1.9013232
O           2.6620407    -1.0766952    -2.4614239
18
275_C6H8N2O2_1-0-10-11 (165,) energy =    -493.4028685
C           2.3556209    -0.7042358    -1.3021592
N           1.0893638    -0.7750654    -0.7935960
C           0.0025388    -1.4058134    -1.5161972
H          -0.6828096    -0.6681293    -1.9555684
H          -0.5699184    -2.0634831    -0.8525212
H           0.4406173    -1.9990499    -2.3199753
H           0.8840916    -0.2268114     0.0320267
C           3.2502807     0.8434506     0.6416011
O           2.0579506     1.1848792     1.2305066
H           2.2384627     1.7267441     2.0124912
C           3.3263524     0.0384267    -0.4891067
N           4.6696626    -0.1103487    -0.7686266
H           4.9757005    -0.6481617    -1.5677739
C           5.4204066     0.5864476     0.1220145
H           6.4988552     0.6050905     0.0612563
C           4.5652294     1.2013598     1.0271680
H           4.8563356     1.8277263     1.8604803
O           2.7114544    -1.2702940    -2.3418857
18
275_C6H8N2O2_1-0-10-11 (180,) energy =    -493.4038957
C           2.3742284    -0.7740580    -1.2194733
N           1.0670325    -0.6794075    -0.8361526
C          -0.0001011    -1.3585741    -1.5424153
H          -0.7303332    -0.6448790    -1.9442156
H          -0.5256131    -2.0651808    -0.8877431
H           0.4512100    -1.9086172    -2.3693392
H           0.8508113    -0.1116313    -0.0270590
C           3.2480999     0.7914667     0.7213715
O           2.0574119     1.0783140     1.3412536
H           2.2280096     1.6608774     2.0956670
C           3.3339025    -0.0268608    -0.3992283
N           4.6705086    -0.0833175    -0.7367794
H           4.9794727    -0.6267504    -1.5311034
C           5.4097435     0.6616705     0.1236144
H           6.4823495     0.7441744     0.0245630
C           4.5522718     1.2295701     1.0572096
H           4.8351977     1.8775626     1.8766736
O           2.7624589    -1.4363560    -2.1889992
