25
050_C12H10N2O_2-0-21-19 (-165,) energy =    -648.0364542
N           1.6042062    -0.9670237    -0.4773746
H           1.3429426    -0.1739415     0.0909580
C           2.9480045    -1.0256819    -0.8472999
C           5.5974495     1.6500098     1.2481037
H           6.2800374     2.3230537     1.7599463
C           5.8970335     1.1911478    -0.0376223
H           6.8132936     1.5077871    -0.5283914
C           5.0248513     0.3244114    -0.6908252
H           5.2459041    -0.0556221    -1.6828123
C           3.8335575    -0.0820546    -0.0741684
C           3.5457383     0.3710133     1.2214348
H           2.6573169     0.0226374     1.7422893
C           4.4248425     1.2323525     1.8791408
H           4.1980296     1.5680356     2.8873793
O           3.3879901    -1.7382619    -1.7299712
C          -1.5832006    -3.3357844    -1.6511600
H          -2.3866257    -3.9920405    -1.9698292
C          -1.8410092    -2.1182034    -1.0164138
H          -2.8606008    -1.7946389    -0.8251282
C          -0.7744694    -1.3162006    -0.6344833
H          -0.9418109    -0.3574732    -0.1497647
C           0.5325782    -1.7693992    -0.9002259
N           0.7925672    -2.9358359    -1.4910274
C          -0.2513342    -3.6867704    -1.8601141
H           0.0006249    -4.6288667    -2.3445703
25
050_C12H10N2O_2-0-21-19 (-150,) energy =    -648.0367158
N           1.5984555    -0.9936478    -0.3650060
H           1.3350684    -0.2104464     0.2164010
C           2.9133117    -0.9842810    -0.8327269
C           5.6368189     1.6303532     1.2403108
H           6.3364274     2.2902448     1.7462906
C           5.8669951     1.2472442    -0.0839627
H           6.7458430     1.6095818    -0.6102749
C           4.9733515     0.3974482    -0.7303815
H           5.1406160     0.0764820    -1.7532916
C           3.8299144    -0.0677301    -0.0664564
C           3.6118170     0.3096393     1.2664054
H           2.7621224    -0.0861476     1.8167527
C           4.5124056     1.1543528     1.9163975
H           4.3404857     1.4315581     2.9528765
O           3.2998414    -1.6290091    -1.7899363
C          -1.5569774    -3.3426017    -1.6605152
H          -2.3498711    -3.9993290    -2.0037963
C          -1.8303467    -2.0707415    -1.1530577
H          -2.8509600    -1.7026850    -1.0919294
C          -0.7750859    -1.2690668    -0.7365613
H          -0.9499441    -0.2653356    -0.3576876
C           0.5310905    -1.7828011    -0.8295006
N           0.8043272    -3.0025994    -1.2947659
C          -0.2245948    -3.7490432    -1.7102068
H           0.0369567    -4.7343624    -2.0928139
25
050_C12H10N2O_2-0-21-19 (-135,) energy =    -648.0364651
N           1.5871207    -1.0448783    -0.2418020
H           1.3193231    -0.2731779     0.3537572
C           2.8649988    -0.9631312    -0.7980573
C           5.6508270     1.6214173     1.2238779
H           6.3651118     2.2752106     1.7171504
C           5.8048736     1.3097835    -0.1298886
H           6.6388466     1.7216605    -0.6915955
C           4.8928951     0.4675727    -0.7605628
H           5.0016010     0.2011887    -1.8068218
C           3.8072398    -0.0609666    -0.0490370
C           3.6649435     0.2449420     1.3120529
H           2.8612030    -0.2004462     1.8923343
C           4.5842815     1.0822057     1.9450363
H           4.4727954     1.3043899     3.0028185
O           3.1973648    -1.5483439    -1.8128014
C          -1.5440097    -3.3353042    -1.6969378
H          -2.3294094    -3.9814773    -2.0759445
C          -1.8054649    -2.0210572    -1.3069109
H          -2.8076405    -1.6072158    -1.3788976
C          -0.7573362    -1.2357438    -0.8399839
H          -0.9164104    -0.1991549    -0.5550137
C           0.5205997    -1.8115415    -0.7567502
N           0.7818481    -3.0708516    -1.1114292
C          -0.2340130    -3.8003423    -1.5840075
H           0.0157763    -4.8192566    -1.8753180
25
050_C12H10N2O_2-0-21-19 (-120,) energy =    -648.0355826
N           1.5926489    -1.1110781    -0.1249802
H           1.3233634    -0.3646112     0.5023249
C           2.8231894    -0.9448788    -0.7620003
C           5.6651749     1.6209662     1.2002420
H           6.3926354     2.2718193     1.6779359
C           5.7428388     1.3728986    -0.1730528
H           6.5302363     1.8309913    -0.7653651
C           4.8141164     0.5347215    -0.7844434
H           4.8634359     0.3171180    -1.8463818
C           3.7885683    -0.0535138    -0.0319809
C           3.7227183     0.1885143     1.3476846
H           2.9672955    -0.3030662     1.9546947
C           4.6587219     1.0224009     1.9601445
H           4.6076061     1.1958480     3.0315935
O           3.0979078    -1.4665097    -1.8284216
C          -1.5200316    -3.3300905    -1.7347497
H          -2.2994313    -3.9616107    -2.1495064
C          -1.7448161    -1.9817212    -1.4570607
H          -2.7101757    -1.5251149    -1.6578787
C          -0.7026458    -1.2191940    -0.9381802
H          -0.8269024    -0.1584407    -0.7388452
C           0.5225407    -1.8518954    -0.6856436
N           0.7494362    -3.1419431    -0.9386056
C          -0.2540564    -3.8509527    -1.4653772
H          -0.0339084    -4.8971229    -1.6710952
25
050_C12H10N2O_2-0-21-19 (-105,) energy =    -648.0349381
N           1.7491676    -0.9912776    -0.9449840
H           1.6456458    -0.0200842    -1.2205065
C           2.5651194    -1.1759026     0.1709684
C           5.6600923     1.7300919     0.8656169
H           6.4422510     2.4589350     1.0607148
C           5.2243042     0.8802876     1.8858644
H           5.6661054     0.9474648     2.8763147
C           4.2250929    -0.0565102     1.6347079
H           3.8788394    -0.7337079     2.4084874
C           3.6400424    -0.1447091     0.3643304
C           4.0891381     0.7029828    -0.6584941
H           3.6813350     0.6153475    -1.6617443
C           5.0958628     1.6355560    -0.4077936
H           5.4441877     2.2822372    -1.2085330
O           2.4369438    -2.1316417     0.9202170
C          -1.8704933    -3.0188640    -1.2546104
H          -2.8412482    -3.5023995    -1.3058359
C          -0.7891739    -3.4781486    -2.0054708
H          -0.8957462    -4.3337705    -2.6665335
C           0.4310328    -2.8131509    -1.9011864
H           1.3047951    -3.1215412    -2.4646687
C           0.5181810    -1.7265182    -1.0297708
N          -0.5125874    -1.2609506    -0.3219047
C          -1.6801798    -1.9052843    -0.4357148
H          -2.5030338    -1.5061822     0.1547377
25
050_C12H10N2O_2-0-21-19 (-90,) energy =    -648.0376135
N           1.7264154    -0.9537848    -0.9482897
H           1.5570237     0.0372292    -1.0918505
C           2.6111917    -1.2083123     0.1048181
C           5.6447400     1.7364267     0.8894127
H           6.4133035     2.4736267     1.1058866
C           5.2983473     0.7827730     1.8504748
H           5.7962366     0.7773176     2.8162402
C           4.3166831    -0.1644319     1.5712066
H           4.0398281    -0.9209559     2.2980238
C           3.6602779    -0.1596952     0.3328634
C           4.0190205     0.7929756    -0.6317075
H           3.5532064     0.7814834    -1.6130936
C           5.0084883     1.7359210    -0.3532422
H           5.2871045     2.4649214    -1.1092381
O           2.5554965    -2.2312410     0.7694645
C          -1.8803017    -2.9895115    -1.2725103
H          -2.8523287    -3.4681441    -1.3404121
C          -0.7444139    -3.5685889    -1.8402422
H          -0.8087804    -4.5136033    -2.3725063
C           0.4739267    -2.9043297    -1.7324474
H           1.3845942    -3.3008849    -2.1672165
C           0.5078177    -1.7006754    -1.0240675
N          -0.5723060    -1.1202480    -0.4988796
C          -1.7408693    -1.7629920    -0.6247948
H          -2.6048232    -1.2662220    -0.1870285
25
050_C12H10N2O_2-0-21-19 (-75,) energy =    -648.0410874
N           1.6984741    -0.9343857    -0.9313414
H           1.5014525     0.0592667    -1.0030672
C           2.6529916    -1.2404312     0.0442052
C           5.6249538     1.7450085     0.9044377
H           6.3793862     2.4909306     1.1397687
C           5.3743672     0.6973680     1.7947189
H           5.9328685     0.6271963     2.7240843
C           4.4107320    -0.2607105     1.4911561
H           4.2076523    -1.0887351     2.1622031
C           3.6765437    -0.1738287     0.3002893
C           3.9394597     0.8737935    -0.5943568
H           3.4136459     0.9307832    -1.5433068
C           4.9110971     1.8278539    -0.2924820
H           5.1149225     2.6310875    -0.9951717
O           2.6725738    -2.3160701     0.6229947
C          -1.8966110    -2.9625837    -1.3230964
H          -2.8696045    -3.4335135    -1.4220157
C          -0.7248223    -3.6305502    -1.6864239
H          -0.7634086    -4.6401190    -2.0861717
C           0.4954663    -2.9774304    -1.5529513
H           1.4323135    -3.4458127    -1.8311231
C           0.4923469    -1.6854735    -1.0163140
N          -0.6188045    -1.0224709    -0.6894317
C          -1.7877430    -1.6596315    -0.8424980
H          -2.6755431    -1.0929971    -0.5676177
25
050_C12H10N2O_2-0-21-19 (-60,) energy =    -648.0445799
N           1.6732657    -0.9193654    -0.8900071
H           1.4615921     0.0728877    -0.9211519
C           2.6947190    -1.2680867    -0.0055724
C           5.6219742     1.7435185     0.9151195
H           6.3666584     2.4944452     1.1650220
C           5.4524515     0.6249344     1.7353850
H           6.0642520     0.5041406     2.6251263
C           4.5014803    -0.3393448     1.4123203
H           4.3613832    -1.2213017     2.0284869
C           3.6984515    -0.1884101     0.2733248
C           3.8798755     0.9310343    -0.5520469
H           3.3014286     1.0428419    -1.4648864
C           4.8393861     1.8911463    -0.2315300
H           4.9799733     2.7503755    -0.8814286
O           2.7844760    -2.3838475     0.4861080
C          -1.8970273    -2.9560060    -1.3858210
H          -2.8662361    -3.4256647    -1.5205021
C          -0.7098684    -3.6722809    -1.5593905
H          -0.7326221    -4.7211524    -1.8422074
C           0.5083764    -3.0253645    -1.3871934
H           1.4543391    -3.5368013    -1.5126037
C           0.4825586    -1.6772740    -1.0069328
N          -0.6415508    -0.9705423    -0.8598252
C          -1.8046071    -1.6084644    -1.0465354
H          -2.7011176    -1.0045155    -0.9184007
25
050_C12H10N2O_2-0-21-19 (-45,) energy =    -648.0473457
N           1.6327305    -0.9054102    -0.8103301
H           1.4212068     0.0861342    -0.8300194
C           2.7160302    -1.2815793    -0.0249585
C           5.6236211     1.7467038     0.9123184
H           6.3644202     2.5003345     1.1655094
C           5.5284511     0.5753928     1.6683194
H           6.1947021     0.4162429     2.5117013
C           4.5823770    -0.3921218     1.3404519
H           4.4995600    -1.3139242     1.9065157
C           3.7092603    -0.1930738     0.2619930
C           3.8166933     0.9799031    -0.4996199
H           3.1842398     1.1330128    -1.3697731
C           4.7711937     1.9438221    -0.1754746
H           4.8531127     2.8446724    -0.7772616
O           2.8683845    -2.4231929     0.3892981
C          -1.9079310    -2.9445597    -1.4581023
H          -2.8717847    -3.4102322    -1.6373795
C          -0.7253407    -3.6884060    -1.4554826
H          -0.7461758    -4.7589223    -1.6407651
C           0.4886626    -3.0498802    -1.2286678
H           1.4273560    -3.5867068    -1.2119778
C           0.4596788    -1.6693765    -0.9822419
N          -0.6599651    -0.9375750    -0.9999388
C          -1.8146286    -1.5734507    -1.2324123
H          -2.7051133    -0.9473415    -1.2376809
25
050_C12H10N2O_2-0-21-19 (-30,) energy =    -648.0491706
N           1.5954878    -0.8969808    -0.7081448
H           1.3864790     0.0940165    -0.7311371
C           2.7342252    -1.2911083    -0.0264108
C           5.6320141     1.7496154     0.9040785
H           6.3721862     2.5044566     1.1553961
C           5.6011255     0.5394371     1.6019169
H           6.3163122     0.3507492     2.3978028
C           4.6558465    -0.4296655     1.2766099
H           4.6223459    -1.3809195     1.7971506
C           3.7198182    -0.1943748     0.2600167
C           3.7631211     1.0178892    -0.4443747
H           3.0819775     1.2039666    -1.2704105
C           4.7165413     1.9839308    -0.1233997
H           4.7481138     2.9157167    -0.6812076
O           2.9411421    -2.4493833     0.3157008
C          -1.9052054    -2.9363572    -1.5317240
H          -2.8595557    -3.3998171    -1.7604354
C          -0.7430607    -3.6945450    -1.3726260
H          -0.7701854    -4.7756229    -1.4797178
C           0.4615170    -3.0626340    -1.0832842
H           1.3824972    -3.6102348    -0.9419366
C           0.4422528    -1.6658515    -0.9469746
N          -0.6593023    -0.9209994    -1.1083483
C          -1.8025920    -1.5541141    -1.3926555
H          -2.6766951    -0.9167021    -1.5143746
25
050_C12H10N2O_2-0-21-19 (-15,) energy =    -648.0501227
N           1.5535350    -0.8917765    -0.5935912
H           1.3514125     0.0995378    -0.6284492
C           2.7392628    -1.2963459    -0.0137808
C           5.6424116     1.7519408     0.8877749
H           6.3841546     2.5085584     1.1289770
C           5.6686177     0.5121491     1.5315064
H           6.4312679     0.3020893     2.2763250
C           4.7202868    -0.4579273     1.2177803
H           4.7313369    -1.4311634     1.6968960
C           3.7236789    -0.1960100     0.2672494
C           3.7100719     1.0464889    -0.3834685
H           2.9807142     1.2570428    -1.1612275
C           4.6660524     2.0140647    -0.0747143
H           4.6517227     2.9693376    -0.5919982
O           2.9873625    -2.4653534     0.2613882
C          -1.8944501    -2.9322768    -1.6081542
H          -2.8352224    -3.3944274    -1.8896008
C          -0.7648663    -3.6954349    -1.3054727
H          -0.8051260    -4.7806106    -1.3476110
C           0.4237982    -3.0668079    -0.9492855
H           1.3197053    -3.6159234    -0.6975804
C           0.4229168    -1.6635323    -0.9067871
N          -0.6496050    -0.9136822    -1.1983276
C          -1.7772250    -1.5456850    -1.5388186
H          -2.6265898    -0.9039550    -1.7669091
25
050_C12H10N2O_2-0-21-19 (0,) energy =    -648.0503242
N           1.5129650    -0.8910656    -0.4675175
H           1.3185396     0.1001295    -0.5267984
C           2.7411376    -1.3000776     0.0066461
C           5.6545833     1.7505585     0.8653101
H           6.4010098     2.5060220     1.0953417
C           5.7295093     0.4872918     1.4575279
H           6.5341155     0.2575203     2.1505884
C           4.7752942    -0.4815755     1.1585130
H           4.8228431    -1.4725619     1.5973220
C           3.7247692    -0.1953928     0.2754787
C           3.6622030     1.0709610    -0.3244772
H           2.8899580     1.3048785    -1.0527675
C           4.6237249     2.0377519    -0.0309124
H           4.5709098     3.0120180    -0.5087687
O           3.0242185    -2.4750945     0.2173250
C          -1.8711396    -2.9300486    -1.6786259
H          -2.7950907    -3.3908259    -2.0129976
C          -0.7854145    -3.6946728    -1.2470861
H          -0.8450119    -4.7797541    -1.2365915
C           0.3823690    -3.0683189    -0.8236880
H           1.2458716    -3.6170655    -0.4762085
C           0.4091245    -1.6649350    -0.8577781
N          -0.6238093    -0.9137208    -1.2665617
C          -1.7333402    -1.5436160    -1.6649511
H          -2.5500222    -0.9005699    -1.9887943
25
050_C12H10N2O_2-0-21-19 (15,) energy =    -648.0501270
N           1.5183369    -0.8526628    -0.5538512
H           1.5328475     0.0323544    -1.0451479
C           2.6344107    -1.2181150     0.1719004
C           5.6700528     1.7734254     0.7686434
H           6.4512170     2.5127421     0.9234206
C           5.9630937     0.4112900     0.8735760
H           6.9733006     0.0881360     1.1092186
C           4.9605748    -0.5353614     0.6799697
H           5.1640476    -1.5971520     0.7699947
C           3.6557573    -0.1325499     0.3634506
C           3.3654125     1.2366330     0.2710203
H           2.3516462     1.5776761     0.0783122
C           4.3687498     2.1839195     0.4743283
H           4.1312084     3.2421058     0.4101221
O           2.7985468    -2.3429449     0.6319144
C          -1.7765303    -2.9742760    -1.8669207
H          -2.6627057    -3.4644167    -2.2570750
C          -0.9685826    -3.5808108    -0.9029677
H          -1.2147901    -4.5669470    -0.5183754
C           0.1593197    -2.9208556    -0.4263474
H           0.8183837    -3.3548713     0.3117229
C           0.4356251    -1.6507557    -0.9570982
N          -0.3306021    -1.0505203    -1.8789878
C          -1.4088560    -1.7081026    -2.3171642
H          -2.0049828    -1.1896407    -3.0662212
25
050_C12H10N2O_2-0-21-19 (30,) energy =    -648.0491707
N           1.4606975    -0.8034236    -0.4550360
H           1.4805055     0.0777116    -0.9545517
C           2.6286378    -1.2065720     0.1696521
C           5.6830329     1.7666354     0.7562154
H           6.4692746     2.5015661     0.9062531
C           5.9848057     0.4025457     0.7809767
H           7.0065725     0.0737018     0.9494424
C           4.9762791    -0.5389319     0.5935722
H           5.1867766    -1.6028169     0.6216092
C           3.6559787    -0.1279675     0.3634527
C           3.3576338     1.2425743     0.3508877
H           2.3340633     1.5853582     0.2255387
C           4.3674244     2.1842874     0.5479529
H           4.1242819     3.2431790     0.5460137
O           2.8198265    -2.3550156     0.5516700
C          -1.7237115    -3.0006551    -1.9131028
H          -2.5792289    -3.5128493    -2.3416525
C          -0.9979760    -3.5482720    -0.8528480
H          -1.2808136    -4.5076008    -0.4278570
C           0.0902945    -2.8584866    -0.3294376
H           0.6859285    -3.2491770     0.4833617
C           0.4196851    -1.6278400    -0.9185103
N          -0.2716442    -1.0808859    -1.9270428
C          -1.3174966    -1.7629033    -2.4064321
H          -1.8533487    -1.2885239    -3.2267803
25
050_C12H10N2O_2-0-21-19 (45,) energy =    -648.0473455
N           1.4130077    -0.7706075    -0.3666576
H           1.4331150     0.1093658    -0.8701408
C           2.6274313    -1.2030066     0.1529811
C           5.6896058     1.7590349     0.7468816
H           6.4777689     2.4919663     0.8966978
C           6.0016903     0.3987196     0.6783406
H           7.0332539     0.0711789     0.7738288
C           4.9911095    -0.5406253     0.4913293
H           5.2099106    -1.6023137     0.4473355
C           3.6577779    -0.1299640     0.3548111
C           3.3497069     1.2360864     0.4351184
H           2.3180719     1.5729881     0.3819424
C           4.3620378     2.1751249     0.6318294
H           4.1122029     3.2301206     0.7023375
O           2.8423073    -2.3711179     0.4486840
C          -1.6629835    -3.0386315    -1.9504676
H          -2.4873244    -3.5728657    -2.4120609
C          -1.0400438    -3.5134023    -0.7935926
H          -1.3755645    -4.4340369    -0.3238794
C           0.0078500    -2.7930519    -0.2314903
H           0.5222861    -3.1260844     0.6595993
C           0.4111510    -1.6183291    -0.8832576
N          -0.1854521    -1.1381160    -1.9799922
C          -1.1996342    -1.8435576    -2.4951573
H          -1.6599890    -1.4243094    -3.3880704
25
050_C12H10N2O_2-0-21-19 (60,) energy =    -648.0445801
N           1.3685237    -0.7458212    -0.2878998
H           1.3803453     0.1388989    -0.7853651
C           2.6233664    -1.1995738     0.1205351
C           5.6839865     1.7551165     0.7445830
H           6.4717513     2.4873205     0.9001535
C           6.0058633     0.4072192     0.5646727
H           7.0445557     0.0887275     0.5791380
C           4.9959539    -0.5312927     0.3700990
H           5.2225689    -1.5843473     0.2402641
C           3.6531422    -0.1303372     0.3379500
C           3.3351104     1.2222613     0.5293339
H           2.2985094     1.5464785     0.5559307
C           4.3477679     2.1593666     0.7332651
H           4.0920517     3.2035834     0.8902083
O           2.8614373    -2.3826335     0.3164806
C          -1.6114654    -3.0690635    -1.9803153
H          -2.4062236    -3.6230619    -2.4697441
C          -1.1142580    -3.4559820    -0.7330836
H          -1.5215313    -4.3227203    -0.2197409
C          -0.1033926    -2.7085204    -0.1399923
H           0.3125496    -2.9670192     0.8255613
C           0.3979037    -1.6101828    -0.8506351
N          -0.0810542    -1.2115015    -2.0323079
C          -1.0664664    -1.9358598    -2.5789025
H          -1.4332957    -1.5846949    -3.5417179
25
050_C12H10N2O_2-0-21-19 (75,) energy =    -648.0410876
N           1.3586705    -0.7418576    -0.2404895
H           1.3489913     0.1610330    -0.7052601
C           2.6473993    -1.2002125     0.0521279
C           5.6848992     1.7611004     0.7522567
H           6.4666549     2.4959419     0.9249357
C           6.0210401     0.4391915     0.4481190
H           7.0646638     0.1439264     0.3830330
C           5.0192527    -0.5031444     0.2311171
H           5.2572123    -1.5372475     0.0048988
C           3.6697276    -0.1308787     0.3016174
C           3.3380675     1.1947415     0.6174586
H           2.2980804     1.4906917     0.7226995
C           4.3429718     2.1353795     0.8428582
H           4.0774303     3.1580918     1.0959284
O           2.9140487    -2.3896197     0.1332069
C          -1.5555449    -3.1013689    -2.0104349
H          -2.3255653    -3.6708208    -2.5213994
C          -1.2029798    -3.3782389    -0.6874543
H          -1.7011109    -4.1700650    -0.1348248
C          -0.2194483    -2.6097995    -0.0745461
H           0.0826215    -2.7755976     0.9529314
C           0.4040197    -1.6145630    -0.8347948
N           0.0615284    -1.3185741    -2.0902243
C          -0.9016302    -2.0563669    -2.6592028
H          -1.1587297    -1.7909069    -3.6830323
25
050_C12H10N2O_2-0-21-19 (90,) energy =    -648.0376137
N           1.3540329    -0.7485270    -0.2000424
H           1.3041578     0.1843100    -0.5982657
C           2.6664772    -1.1982356    -0.0245437
C           5.6792315     1.7631030     0.7800982
H           6.4542729     2.4989246     0.9773135
C           6.0242306     0.4847786     0.3330068
H           7.0681708     0.2246006     0.1809448
C           5.0311425    -0.4590901     0.0845289
H           5.2766355    -1.4607880    -0.2524183
C           3.6807522    -0.1310104     0.2668974
C           3.3409253     1.1499113     0.7256499
H           2.3026115     1.4058369     0.9171284
C           4.3374834     2.0917039     0.9818420
H           4.0661654     3.0789144     1.3457114
O           2.9603468    -2.3827230    -0.0699526
C          -1.5221765    -3.1399764    -2.0078101
H          -2.2705056    -3.7271593    -2.5310387
C          -1.3282152    -3.2694360    -0.6317744
H          -1.9308195    -3.9601125    -0.0484138
C          -0.3620653    -2.4823555    -0.0117778
H          -0.1794044    -2.5310613     1.0558773
C           0.3974188    -1.6220826    -0.8084776
N           0.2072233    -1.4667039    -2.1196430
C          -0.7374030    -2.2187693    -2.6997884
H          -0.8704880    -2.0708441    -3.7699555
25
050_C12H10N2O_2-0-21-19 (105,) energy =    -648.0349385
N           1.3714097    -0.7806439    -0.1754541
H           1.2627288     0.1906398    -0.4486325
C           2.6991942    -1.2015422    -0.1071479
C           5.6755156     1.7672145     0.8058792
H           6.4415628     2.5054252     1.0278351
C           6.0264056     0.5484732     0.2189091
H           7.0657236     0.3372285    -0.0174998
C           5.0453639    -0.3991600    -0.0615131
H           5.2960332    -1.3563026    -0.5067907
C           3.7003406    -0.1332596     0.2285125
C           3.3554849     1.0867739     0.8276802
H           2.3245333     1.2898871     1.1040599
C           4.3402726     2.0319469     1.1155741
H           4.0654186     2.9709438     1.5882758
O           3.0218049    -2.3674998    -0.2735033
C          -1.4961040    -3.1729352    -2.0087588
H          -2.2310647    -3.7708725    -2.5389203
C          -1.4590558    -3.1363717    -0.6154810
H          -2.1715403    -3.7051973    -0.0244585
C          -0.4953888    -2.3467266     0.0087518
H          -0.4224726    -2.2754770     1.0884059
C           0.4038642    -1.6433857    -0.7940582
N           0.3673118    -1.6503742    -2.1277810
C          -0.5667215    -2.4082103    -2.7147696
H          -0.5721482    -2.3978370    -3.8032844
25
050_C12H10N2O_2-0-21-19 (120,) energy =    -648.0335427
N           1.4303595    -0.8385233    -0.2202594
H           1.2328151     0.1542264    -0.2363942
C           2.7676343    -1.2051216    -0.2298879
C           5.6640007     1.7856907     0.8685527
H           6.4102411     2.5294313     1.1349847
C           6.0312103     0.6566016     0.1316847
H           7.0640238     0.5205874    -0.1774221
C           5.0755461    -0.2986734    -0.2052053
H           5.3405730    -1.1889916    -0.7657787
C           3.7378941    -0.1294358     0.1764584
C           3.3782415     0.9995692     0.9261523
H           2.3577271     1.1251856     1.2784538
C           4.3378119     1.9517722     1.2711116
H           4.0506211     2.8182261     1.8606369
O           3.1358776    -2.3331763    -0.5181185
C          -1.5052968    -3.2060087    -1.9733922
H          -2.2492902    -3.8110990    -2.4824995
C          -1.5937042    -2.9442652    -0.6074318
H          -2.4129352    -3.3428300    -0.0153484
C          -0.6031786    -2.1667021    -0.0094447
H          -0.6115906    -1.9464976     1.0528101
C           0.4299316    -1.6769190    -0.8115473
N           0.5175988    -1.9048250    -2.1236657
C          -0.4301827    -2.6655239    -2.6813937
H          -0.3283590    -2.8434255    -3.7505732
25
050_C12H10N2O_2-0-21-19 (135,) energy =    -648.0344677
N           1.5407718    -0.8507086    -0.5462278
H           1.2623777    -0.0271549    -0.0335670
C           2.8952410    -1.1549535    -0.5750606
C           5.6237711     1.7427510     1.0852725
H           6.3302016     2.4625013     1.4899322
C           6.0383740     0.8131427     0.1282625
H           7.0692366     0.8081761    -0.2151528
C           5.1332663    -0.1120622    -0.3852374
H           5.4384179    -0.8519120    -1.1176093
C           3.7962533    -0.1107795     0.0361251
C           3.3913326     0.8179133     1.0056485
H           2.3758626     0.8151363     1.3952935
C           4.3004809     1.7380593     1.5284215
H           3.9756379     2.4454864     2.2864620
O           3.3450367    -2.1744877    -1.0684008
C          -1.5637081    -3.2896454    -1.8115252
H          -2.3502399    -3.9342100    -2.1910993
C          -1.6969628    -2.6144955    -0.5974901
H          -2.5943714    -2.7229246     0.0055666
C          -0.6499429    -1.8130593    -0.1555969
H          -0.7011103    -1.2972774     0.7993556
C           0.4881780    -1.6942234    -0.9687537
N           0.6229141    -2.3225407    -2.1374052
C          -0.3818677    -3.1126402    -2.5304829
H          -0.2351024    -3.6200397    -3.4825535
25
050_C12H10N2O_2-0-21-19 (150,) energy =    -648.0350830
N           1.5779241    -0.9160296    -0.5345635
H           1.3076464    -0.1024914    -0.0017369
C           2.9425549    -1.1630210    -0.6396470
C           5.5913827     1.7515696     1.1180463
H           6.2776272     2.4775897     1.5455466
C           6.0025200     0.9343836     0.0618856
H           7.0098235     1.0236759    -0.3356223
C           5.1244517     0.0003481    -0.4816684
H           5.4294780    -0.6546926    -1.2909339
C           3.8169439    -0.1180311     0.0095617
C           3.4164121     0.6966708     1.0784443
H           2.4287013     0.5916144     1.5216857
C           4.2995995     1.6251006     1.6305548
H           3.9801382     2.2425166     2.4656384
O           3.4211147    -2.1231840    -1.2154397
C          -1.5960950    -3.2664115    -1.7892054
H          -2.3999378    -3.8952118    -2.1585302
C          -1.7688030    -2.4343830    -0.6809792
H          -2.7180479    -2.3990028    -0.1532532
C          -0.7006973    -1.6598139    -0.2468548
H          -0.7915164    -1.0209048     0.6277824
C           0.5099637    -1.7298419    -0.9600906
N           0.6839732    -2.5090220    -2.0275781
C          -0.3501914    -3.2648818    -2.4135271
H          -0.1688823    -3.8955571    -3.2824064
25
050_C12H10N2O_2-0-21-19 (165,) energy =    -648.0354922
N           1.6114194    -0.9556209    -0.5492526
H           1.3479693    -0.1469374    -0.0052562
C           2.9796053    -1.1401672    -0.7320300
C           5.5687182     1.7303487     1.1804638
H           6.2391080     2.4470057     1.6471498
C           5.9642574     1.0462366     0.0279324
H           6.9436073     1.2305611    -0.4051226
C           5.1071815     0.1233994    -0.5658672
H           5.4023592    -0.4307387    -1.4507253
C           3.8351824    -0.1151324    -0.0273977
C           3.4506396     0.5652837     1.1370544
H           2.4947120     0.3576476     1.6123991
C           4.3139459     1.4820483     1.7382801
H           4.0090954     1.9939311     2.6469466
O           3.4741720    -2.0226083    -1.4083624
C          -1.6047076    -3.2880494    -1.7236523
H          -2.4194112    -3.9203870    -2.0615400
C          -1.8027288    -2.2869067    -0.7692362
H          -2.7844555    -2.1169876    -0.3354505
C          -0.7230717    -1.5119711    -0.3697903
H          -0.8408904    -0.7352843     0.3818782
C           0.5335160    -1.7593830    -0.9575778