27
143_C14H11FO_6-7-21-16 (-165,) energy =    -715.1754133
C          -0.0976635     0.1046521    -1.0827987
F           0.1270220     1.0372389    -2.0258878
C          -1.2169181    -0.7077187    -1.2173642
H          -1.8779447    -0.5567384    -2.0644836
C          -1.4594573    -1.6910456    -0.2579123
H          -2.3367472    -2.3249231    -0.3507136
C           0.8113804    -0.0419376    -0.0289833
C           1.9469758     0.9397740     0.1451959
C          -0.5781761    -1.8598273     0.8119811
H          -0.7678039    -2.6213090     1.5625384
C           5.9314106    -0.6043621     0.6433896
H           6.9422523    -0.9876239     0.7561761
C           5.6489173     0.7180992     0.9850175
H           6.4468596     1.3518517     1.3641179
C           0.5495942    -1.0459705     0.9156848
H           1.2359897    -1.1742358     1.7478280
C           4.3671593     1.2652276     0.8506361
C           4.1580920     2.7115432     1.2326180
H           5.0592863     3.1054110     1.7139832
H           3.3115236     2.8386056     1.9138083
H           3.9300800     3.3257265     0.3565151
C           3.3308145     0.4182650     0.3724958
C           3.6302669    -0.9125620     0.0277252
H           2.8425290    -1.5464693    -0.3641568
C           4.9171848    -1.4262070     0.1553810
H           5.1240898    -2.4548988    -0.1254964
O           1.6978701     2.1365088     0.0910320
27
143_C14H11FO_6-7-21-16 (-150,) energy =    -715.1758327
C          -0.1616927     0.1377184    -1.0944553
F          -0.0332967     1.0415848    -2.0796969
C          -1.2972570    -0.6634385    -1.0910385
H          -2.0408848    -0.5219361    -1.8684075
C          -1.4492693    -1.6226492    -0.0898168
H          -2.3385481    -2.2464691    -0.0762222
C           0.8530259     0.0020517    -0.1364709
C           2.0210603     0.9537407    -0.1049477
C          -0.4627348    -1.7807286     0.8857727
H          -0.5806537    -2.5234783     1.6690183
C           5.9241787    -0.6307601     0.7640786
H           6.9151569    -1.0245013     0.9746122
C           5.5979956     0.6691961     1.1516070
H           6.3409406     1.2745625     1.6652955
C           0.6781363    -0.9806623     0.8516178
H           1.4461245    -1.1008389     1.6095998
C           4.3403091     1.2275528     0.8933116
C           4.0719862     2.6517066     1.3211317
H           4.8669006     3.0010474     1.9880078
H           3.1131123     2.7541960     1.8381332
H           4.0217814     3.3203450     0.4565886
C           3.3760912     0.4152390     0.2439886
C           3.7112926    -0.8960929    -0.1341345
H           2.9703351    -1.5046540    -0.6428541
C           4.9785833    -1.4185308     0.1097560
H           5.2215861    -2.4296909    -0.2040634
O           1.8412099     2.1408526    -0.3391178
27
143_C14H11FO_6-7-21-16 (-135,) energy =    -715.1750790
C          -0.1996074     0.1699307    -1.0941076
F          -0.1386430     1.0369420    -2.1162081
C          -1.3534114    -0.5935326    -0.9611381
H          -2.1606295    -0.4504712    -1.6719360
C          -1.4415523    -1.5187083     0.0787577
H          -2.3440227    -2.1127738     0.1922213
C           0.8946923     0.0308456    -0.2254253
C           2.0971815     0.9264786    -0.3349497
C          -0.3747109    -1.6817832     0.9650113
H          -0.4417421    -2.3992049     1.7772754
C           5.9190918    -0.6528304     0.8447302
H           6.8896762    -1.0453574     1.1365550
C           5.5271690     0.6158794     1.2742427
H           6.1971694     1.1977677     1.9027187
C           0.7806410    -0.9200483     0.8031093
H           1.6107721    -1.0447041     1.4908759
C           4.2927422     1.1693987     0.9140524
C           3.9364298     2.5622054     1.3812745
H           4.6335550     2.8938894     2.1571885
H           2.9207889     2.6146961     1.7867577
H           3.9730928     3.2753661     0.5521299
C           3.4274030     0.3878126     0.1132787
C           3.8175170    -0.8961086    -0.2967797
H           3.1382847    -1.4864538    -0.9054587
C           5.0642342    -1.4134140     0.0483399
H           5.3591619    -2.4014882    -0.2935132
O           1.9850442     2.0765335    -0.7341920
27
143_C14H11FO_6-7-21-16 (-120,) energy =    -715.1734946
C          -0.2267007     0.2058131    -1.1178815
F          -0.2222870     1.0486109    -2.1601695
C          -1.3973675    -0.5012344    -0.8690684
H          -2.2545809    -0.3346839    -1.5130530
C          -1.4383097    -1.4010897     0.1952753
H          -2.3532581    -1.9512654     0.3963915
C           0.9308497     0.0362182    -0.3376725
C           2.1685837     0.8487971    -0.5779410
C          -0.3090851    -1.5946621     0.9939879
H          -0.3384262    -2.2933970     1.8245117
C           5.9128977    -0.6482132     0.9254101
H           6.8636921    -1.0183976     1.2997358
C           5.4227677     0.5802600     1.3720183
H           5.9961910     1.1544856     2.0959713
C           0.8594480    -0.8885415     0.7197751
H           1.7380695    -1.0384390     1.3381651
C           4.2085526     1.0998392     0.9085799
C           3.7248877     2.4481945     1.3925844
H           4.3633495     2.8206934     2.1993531
H           2.6964741     2.4028318     1.7696234
H           3.7284909     3.1808800     0.5795894
C           3.4734137     0.3330513    -0.0209400
C           3.9545880    -0.9112982    -0.4476639
H           3.3663204    -1.4964200    -1.1501176
C           5.1798626    -1.3979130     0.0068045
H           5.5510642    -2.3559467    -0.3463005
O           2.1279558     1.9228401    -1.1588117
27
143_C14H11FO_6-7-21-16 (-105,) energy =    -715.1718805
C          -0.1856287     0.2517961    -1.0972176
F          -0.2104434     1.0717297    -2.1560566
C          -1.3791009    -0.3646935    -0.7388545
H          -2.2704183    -0.1511189    -1.3195514
C          -1.3993351    -1.2359114     0.3493230
H          -2.3313201    -1.7163979     0.6336310
C           1.0149696     0.0218676    -0.3997060
C           2.2902047     0.7176943    -0.7652179
C          -0.2276259    -1.4901253     1.0657784
H          -0.2397017    -2.1684790     1.9134097
C           5.9731799    -0.6419902     1.0072498
H           6.9092635    -0.9756642     1.4471120
C           5.3714635     0.5325102     1.4625313
H           5.8442472     1.1046164     2.2574955
C           0.9602098    -0.8709763     0.6867757
H           1.8719273    -1.0697075     1.2398347
C           4.1699538     0.9989116     0.9167835
C           3.5479803     2.2862502     1.4089076
H           4.1425352     2.7236030     2.2164234
H           2.5316507     2.1263837     1.7907436
H           3.4723137     3.0206306     0.6000890
C           3.5702447     0.2417380    -0.1098496
C           4.1643316    -0.9443823    -0.5542860
H           3.6823070    -1.5225460    -1.3389834
C           5.3707953    -1.3833478    -0.0078677
H           5.8306778    -2.2987530    -0.3697104
O           2.3197420     1.6659492    -1.5337095
27
143_C14H11FO_6-7-21-16 (-90,) energy =    -715.1711306
C          -0.2054088     0.3514535    -1.0481195
F          -0.2454075     1.2267214    -2.0607071
C          -1.4182220    -0.1635519    -0.6037728
H          -2.3312219     0.1594567    -1.0930370
C          -1.4299960    -1.0747444     0.4509764
H          -2.3763585    -1.4794650     0.7986659
C           1.0223239    -0.0149673    -0.4648150
C           2.3284324     0.5368708    -0.9454561
C          -0.2319637    -1.4630749     1.0553712
H          -0.2371665    -2.1733802     1.8764655
C           5.9836520    -0.5533339     1.0597844
H           6.9150114    -0.8166906     1.5539604
C           5.2484381     0.5467968     1.5039866
H           5.6159655     1.1364092     2.3407747
C           0.9724503    -0.9356317     0.5989475
H           1.9045225    -1.2380163     1.0644256
C           4.0448207     0.9168954     0.8927608
C           3.2726333     2.1246072     1.3742043
H           3.7834285     2.6084387     2.2119850
H           2.2632261     1.8545763     1.7088960
H           3.1573419     2.8654429     0.5744158
C           3.5858974     0.1443583    -0.1924270
C           4.3258624    -0.9539656    -0.6423831
H           3.9634047    -1.5319769    -1.4888723
C           5.5230467    -1.3070441    -0.0186644
H           6.0904369    -2.1618007    -0.3763196
O           2.4146029     1.2762667    -1.9125552
27
143_C14H11FO_6-7-21-16 (-75,) energy =    -715.1715932
C          -0.1797809     0.4286625    -1.0054672
F          -0.1836746     1.3135424    -2.0116646
C          -1.4113138     0.0289308    -0.4987311
H          -2.3142120     0.4356476    -0.9421718
C          -1.4535141    -0.8779194     0.5593665
H          -2.4143272    -1.1959702     0.9542314
C           1.0348881    -0.0451629    -0.4787276
C           2.3598861     0.3550168    -1.0519562
C          -0.2674960    -1.3714098     1.1083524
H          -0.2964663    -2.0794178     1.9309820
C           6.0196399    -0.4559844     1.0675682
H           6.9543627    -0.6518088     1.5862246
C           5.1692860     0.5505560     1.5267006
H           5.4547180     1.1401820     2.3949150
C           0.9562704    -0.9512868     0.5944254
H           1.8801499    -1.3344784     1.0157888
C           3.9540712     0.8302655     0.8898470
C           3.0616303     1.9389399     1.4029854
H           3.5641545     2.5087653     2.1903475
H           2.1253891     1.5484276     1.8199367
H           2.7902664     2.6394656     0.6046149
C           3.6066164     0.0650431    -0.2420956
C           4.4753212    -0.9232644    -0.7199660
H           4.2050712    -1.4756770    -1.6158953
C           5.6734029    -1.1971807    -0.0616982
H           6.3342806    -1.9742972    -0.4354737
O           2.4641757     0.8455922    -2.1647182
27
143_C14H11FO_6-7-21-16 (-60,) energy =    -715.1725309
C          -0.1200233     0.4258123    -1.0242290
F          -0.0702411     1.2859932    -2.0521559
C          -1.3672551     0.1391673    -0.4811198
H          -2.2462382     0.6044537    -0.9149400
C          -1.4544731    -0.7357093     0.6012623
H          -2.4276419    -0.9683822     1.0243353
C           1.0640786    -0.1242941    -0.5078638
C           2.3976750     0.1327818    -1.1441822
C          -0.2978702    -1.3060843     1.1383806
H          -0.3637799    -1.9907342     1.9785206
C           6.0716708    -0.3609446     1.0401484
H           7.0100918    -0.4854140     1.5740698
C           5.1196121     0.5419805     1.5130098
H           5.3329931     1.1274348     2.4044200
C           0.9438300    -0.9927982     0.5905475
H           1.8458548    -1.4349417     1.0025982
C           3.8932374     0.7280086     0.8615417
C           2.9075909     1.7400680     1.4063236
H           3.4062267     2.4207280     2.1033407
H           2.0829161     1.2590814     1.9456312
H           2.4603667     2.3461984     0.6114112
C           3.6437174    -0.0247299    -0.3063077
C           4.6209434    -0.9001820    -0.8012684
H           4.4211430    -1.4326568    -1.7264948
C           5.8238986    -1.0863230    -0.1254108
H           6.5651689    -1.7801311    -0.5119252
O           2.4941330     0.3799832    -2.3365038
27
143_C14H11FO_6-7-21-16 (-45,) energy =    -715.1727553
C          -0.0545672     0.5049707    -0.9647950
F           0.0681927     1.3620917    -1.9913571
C          -1.3159358     0.3287305    -0.4082841
H          -2.1558448     0.8709695    -0.8299853
C          -1.4663347    -0.5408079     0.6719695
H          -2.4509126    -0.6904030     1.1059682
C           1.0809434    -0.1444763    -0.4618035
C           2.4168433    -0.0240929    -1.1376549
C          -0.3576714    -1.2120742     1.1933097
H          -0.4740841    -1.8936153     2.0305562
C           6.1271532    -0.2409848     1.0270817
H           7.0727304    -0.3085021     1.5587045
C           5.1027672     0.5566272     1.5349601
H           5.2696144     1.1203072     2.4499420
C           0.9015437    -1.0041783     0.6335399
H           1.7674144    -1.5237369     1.0339524
C           3.8618313     0.6688180     0.8925202
C           2.8213655     1.5975931     1.4842371
H           3.2986198     2.3099122     2.1646147
H           2.0595169     1.0546574     2.0549997
H           2.2955071     2.1719595     0.7154978
C           3.6747164    -0.0507250    -0.3102911
C           4.7253573    -0.8206258    -0.8362209
H           4.5612379    -1.3305291    -1.7802930
C           5.9412308    -0.9323835    -0.1705714
H           6.7373023    -1.5446331    -0.5848101
O           2.4854382     0.0134398    -2.3575672
27
143_C14H11FO_6-7-21-16 (-30,) energy =    -715.1717679
C          -0.0154680     0.5097380    -0.9505492
F           0.1825614     1.3318383    -1.9961792
C          -1.2889701     0.4425585    -0.3982643
H          -2.0835480     1.0389060    -0.8345316
C          -1.5098018    -0.3938925     0.6962833
H          -2.5044989    -0.4602738     1.1278146
C           1.0636660    -0.2115343    -0.4276806
C           2.4011560    -0.2189358    -1.1163345
C          -0.4582602    -1.1399026     1.2337326
H          -0.6309357    -1.7975273     2.0804021
C           6.1659530    -0.1162015     0.9626218
H           7.1241069    -0.1184314     1.4757877
C           5.0872868     0.5723905     1.5134497
H           5.2240273     1.1195255     2.4432826
C           0.8164040    -1.0384361     0.6781333
H           1.6383581    -1.6166520     1.0915774
C           3.8266907     0.6004039     0.8988748
C           2.7462746     1.4438161     1.5462818
H           3.2043201     2.1878032     2.2058102
H           2.0576068     0.8452078     2.1525579
H           2.1400015     1.9784378     0.8102101
C           3.6752726    -0.0943837    -0.3261567
C           4.7795554    -0.7608877    -0.8886066
H           4.6344479    -1.2651201    -1.8383161
C           6.0150172    -0.7828720    -0.2540783
H           6.8510534    -1.3122552    -0.7022919
O           2.4398455    -0.3845441    -2.3275720
27
143_C14H11FO_6-7-21-16 (-15,) energy =    -715.1698330
C           0.0350946     0.5444972    -0.8801563
F           0.3527268     1.3529406    -1.9102942
C          -1.2512066     0.6082745    -0.3587295
H          -1.9666364     1.2934800    -0.8015115
C          -1.5860936    -0.2175345     0.7149472
H          -2.5915686    -0.1821222     1.1243681
C           1.0151680    -0.2967934    -0.3495963
C           2.3555283    -0.4412642    -1.0272943
C          -0.6343724    -1.0835443     1.2581839
H          -0.8963593    -1.7334611     2.0877684
C           6.2035594     0.1127364     0.8185431
H           7.1855871     0.2190049     1.2721862
C           5.0898095     0.6736319     1.4386454
H           5.2216559     1.2278734     2.3647277
C           0.6565192    -1.1144031     0.7303739
H           1.3999747    -1.7881162     1.1488037
C           3.7970021     0.5634700     0.9040517
C           2.6833403     1.2850070     1.6364914
H           3.1131831     1.9971861     2.3477034
H           2.0394830     0.6025723     2.2005328
H           2.0342448     1.8431883     0.9563042
C           3.6468291    -0.1445394    -0.3162364
C           4.7847926    -0.6908608    -0.9414485
H           4.6347693    -1.2197449    -1.8764446
C           6.0523559    -0.5697181    -0.3891566
H           6.9120353    -1.0043278    -0.8912995
O           2.3609204    -0.8373066    -2.1847798
27
143_C14H11FO_6-7-21-16 (0,) energy =    -715.1701765
C           0.4319863     0.6368117    -0.4407100
F           1.1581576     1.5882218    -1.0765836
C          -0.8815440     0.9239800    -0.0950223
H          -1.2992254     1.8923278    -0.3505737
C          -1.6269104    -0.0524301     0.5668535
H          -2.6550969     0.1567466     0.8477433
C           1.0391699    -0.5835565    -0.1539096
C           2.4167889    -0.9491113    -0.6583550
C          -1.0557597    -1.2939122     0.8573455
H          -1.6386201    -2.0580243     1.3628875
C           6.2541547     0.6109272     0.5234492
H           7.2362452     0.9901516     0.7939067
C           5.1227122     1.0900244     1.1776825
H           5.2390528     1.8367170     1.9592428
C           0.2596572    -1.5610973     0.4798158
H           0.7003464    -2.5346397     0.6727947
C           3.8278991     0.6430845     0.8712021
C           2.6938045     1.2369908     1.6795269
H           3.0980097     1.7749408     2.5423135
H           2.0002224     0.4793608     2.0527842
H           2.1146802     1.9524766     1.0882997
C           3.6927267    -0.3420764    -0.1416720
C           4.8491099    -0.8200136    -0.7912336
H           4.7117709    -1.5695282    -1.5624022
C           6.1174045    -0.3588975    -0.4702045
H           6.9886263    -0.7482640    -0.9893227
O           2.4571599    -1.8529090    -1.4846540
27
143_C14H11FO_6-7-21-16 (15,) energy =    -715.1723310
C           0.5461930     0.5810374    -0.4029532
F           1.3772027     1.4894232    -0.9649919
C          -0.7711134     0.9531960    -0.1675010
H          -1.0968855     1.9512126    -0.4418167
C          -1.6379995     0.0237653     0.4072279
H          -2.6697555     0.3020141     0.6022768
C           1.0400866    -0.6855135    -0.0887611
C           2.4265006    -1.1539092    -0.4505848
C          -1.1838300    -1.2608583     0.7189282
H          -1.8610816    -1.9885486     1.1557963
C           6.1835253     0.8045853     0.3125291
H           7.1425784     1.2907316     0.4717154
C           5.0776709     1.1906921     1.0650579
H           5.1931889     1.9659861     1.8187576
C           0.1364889    -1.6141027     0.4505937
H           0.4942542    -2.6184095     0.6543315
C           3.8126561     0.6070113     0.8977557
C           2.7130935     1.0803554     1.8262045
H           3.1549496     1.5297129     2.7210574
H           2.0548474     0.2709626     2.1496219
H           2.0894745     1.8448807     1.3518660
C           3.6834253    -0.4214770    -0.0694845
C           4.8158217    -0.8153225    -0.8099427
H           4.6860596    -1.6089978    -1.5372764
C           6.0542267    -0.2151060    -0.6310542
H           6.9079188    -0.5359290    -1.2213082
O           2.5021173    -2.2225403    -1.0477036
27
143_C14H11FO_6-7-21-16 (30,) energy =    -715.1742802
C           0.6369170     0.5971552    -0.3216019
F           1.5332870     1.4795092    -0.8170517
C          -0.6809136     1.0175020    -0.1875851
H          -0.9450116     2.0275626    -0.4832086
C          -1.6255517     0.1227271     0.3133601
H          -2.6577586     0.4414861     0.4275587
C           1.0559819    -0.6904293     0.0237317
C           2.4447319    -1.2234891    -0.2079301
C          -1.2470429    -1.1788236     0.6562765
H          -1.9838535    -1.8791431     1.0379705
C           6.1435630     0.9247549     0.2378877
H           7.0873703     1.4568578     0.3245392
C           5.0849158     1.2499983     1.0828557
H           5.2230218     2.0223978     1.8359343
C           0.0751624    -1.5806070     0.4921921
H           0.3816719    -2.5960433     0.7214555
C           3.8420792     0.6054588     1.0060950
C           2.7833364     1.0057320     2.0127180
H           3.2592917     1.4218935     2.9063401
H           2.1601120     0.1653973     2.3277018
H           2.1184391     1.7770533     1.6093408
C           3.6884734    -0.4178789     0.0406284
C           4.7746524    -0.7607328    -0.7857188
H           4.6324130    -1.5640790    -1.5005852
C           5.9906804    -0.0946085    -0.7024322
H           6.8104427    -0.3686355    -1.3604703
O           2.5435023    -2.3782056    -0.6096303
27
143_C14H11FO_6-7-21-16 (45,) energy =    -715.1751633
C           0.6725941     0.5824441    -0.2959943
F           1.6032758     1.4567062    -0.7356986
C          -0.6472641     1.0176492    -0.2550226
H          -0.8771834     2.0292651    -0.5729725
C          -1.6353411     0.1385300     0.1844536
H          -2.6688588     0.4707751     0.2248202
C           1.0517274    -0.7094310     0.0844749
C           2.4457144    -1.2659984    -0.0171855
C          -1.2973420    -1.1647366     0.5628668
H          -2.0668615    -1.8530152     0.8992048
C           6.0997698     0.9897056     0.1476868
H           7.0354142     1.5419835     0.1773124
C           5.0995951     1.2703380     1.0769924
H           5.2743431     2.0289746     1.8365418
C           0.0279190    -1.5806428     0.4967528
H           0.3098395    -2.5948387     0.7599827
C           3.8716998     0.5953739     1.0723989
C           2.8544434     0.9472062     2.1371988
H           3.3569598     1.3714397     3.0123025
H           2.2777912     0.0806564     2.4719189
H           2.1416101     1.6969883     1.7754349
C           3.6729634    -0.4062237     0.0962585
C           4.7011805    -0.7128703    -0.8103977
H           4.5344895    -1.5130676    -1.5243119
C           5.9019032    -0.0117077    -0.8032477
H           6.6784974    -0.2510534    -1.5242174
O           2.5736870    -2.4672890    -0.2258836
27
143_C14H11FO_6-7-21-16 (60,) energy =    -715.1748195
C           0.7180521     0.5734609    -0.2932185
F           1.6788497     1.4516663    -0.6496648
C          -0.6007760     1.0090544    -0.3682007
H          -0.8002088     2.0208452    -0.7055659
C          -1.6245994     0.1329950    -0.0143259
H          -2.6572566     0.4664586    -0.0664063
C           1.0614497    -0.7190276     0.1224136
C           2.4559067    -1.2793287     0.1695526
C          -1.3224358    -1.1684559     0.4004098
H          -2.1190956    -1.8540727     0.6730786
C           6.0902403     1.0075758     0.0489969
H           7.0235843     1.5636144     0.0181517
C           5.1656910     1.2607955     1.0621245
H           5.3949491     2.0034506     1.8230178
C           0.0025847    -1.5834729     0.4562575
H           0.2626619    -2.5931992     0.7563920
C           3.9461335     0.5769848     1.1344660
C           2.9850630     0.8934929     2.2595949
H           3.5100207     1.3865168     3.0837680
H           2.5035106    -0.0037602     2.6614882
H           2.1905446     1.5710512     1.9256205
C           3.6759755    -0.3983100     0.1521979
C           4.6267733    -0.6823993    -0.8379512
H           4.4139878    -1.4702277    -1.5543191
C           5.8211345     0.0296973    -0.9081880
H           6.5402361    -0.1880745    -1.6929040
O           2.6021263    -2.4956656     0.1719125
27
143_C14H11FO_6-7-21-16 (75,) energy =    -715.1739028
C           0.6926815     0.5368498    -0.2705407
F           1.6623218     1.4376226    -0.5298367
C          -0.6214156     0.9447332    -0.4762367
H          -0.8065914     1.9514532    -0.8359634
C          -1.6571296     0.0505955    -0.2162827
H          -2.6860726     0.3620579    -0.3730045
C           1.0196702    -0.7462822     0.1879301
C           2.4107551    -1.2754426     0.3949494
C          -1.3715792    -1.2400826     0.2427691
H          -2.1778590    -1.9386525     0.4450594
C           6.0238570     1.0014901    -0.0820220
H           6.9526732     1.5542678    -0.1952045
C           5.2013730     1.2457155     1.0185727
H           5.5017768     1.9811907     1.7614519
C          -0.0512156    -1.6256335     0.4358768
H           0.1998255    -2.6230018     0.7813944
C           3.9943418     0.5611892     1.1974598
C           3.1229045     0.8560265     2.3975490
H           3.6663191     1.4551675     3.1345490
H           2.7868220    -0.0605628     2.8955153
H           2.2277655     1.4204366     2.1095154
C           3.6280677    -0.3986201     0.2339333
C           4.4697254    -0.6686127    -0.8506637
H           4.1862193    -1.4405901    -1.5607043
C           5.6575732     0.0405245    -1.0230304
H           6.2963061    -0.1678352    -1.8768584
O           2.5673280    -2.4631717     0.6458870
27
143_C14H11FO_6-7-21-16 (90,) energy =    -715.1733419
C           0.6880407     0.5195561    -0.2600884
F           1.6520907     1.4513946    -0.3995406
C          -0.6069423     0.8890279    -0.6094607
H          -0.7817597     1.8915245    -0.9857317
C          -1.6381862    -0.0356453    -0.4629140
H          -2.6518374     0.2449198    -0.7351110
C           0.9984214    -0.7539650     0.2359149
C           2.3701326    -1.2310142     0.6157242
C          -1.3692448    -1.3157504     0.0347532
H          -2.1727415    -2.0367478     0.1512746
C           5.9631007     0.9859228    -0.1990700
H           6.8845273     1.5270909    -0.3969059
C           5.2621397     1.2166137     0.9857640
H           5.6451848     1.9362644     1.7057921
C          -0.0686263    -1.6609107     0.3787258
H           0.1697345    -2.6455077     0.7674126
C           4.0725776     0.5400588     1.2747279
C           3.3161103     0.8182406     2.5532714
H           3.9089922     1.4365590     3.2339858
H           3.0549891    -0.1070033     3.0790660
H           2.3806209     1.3548317     2.3487552
C           3.5954336    -0.3922658     0.3347768
C           4.3007614    -0.6330967    -0.8475502
H           3.9253233    -1.3680723    -1.5550897
C           5.4816191     0.0579641    -1.1206320
H           6.0222427    -0.1347557    -2.0431670
O           2.5063043    -2.3351246     1.1243369
27
143_C14H11FO_6-7-21-16 (105,) energy =    -715.1738340
C           0.6915150     0.4932325    -0.4176207
F           1.6499138     1.4274060    -0.5719052
C          -0.5819697     0.8067039    -0.8822300
H          -0.7457899     1.7706137    -1.3525222
C          -1.6079969    -0.1223621    -0.7261923
H          -2.6040644     0.1144959    -1.0895988
C           0.9819919    -0.7264040     0.2093227
C           2.3244248    -1.1270729     0.7480287
C          -1.3578179    -1.3497057    -0.1018935
H          -2.1573195    -2.0739311     0.0218353
C           5.9093409     1.0077074    -0.2843379
H           6.8249092     1.5358519    -0.5370679
C           5.3295364     1.1901385     0.9724162
H           5.7963027     1.8622157     1.6888877
C          -0.0801904    -1.6374308     0.3608358
H           0.1410871    -2.5768685     0.8568178
C           4.1554495     0.5240210     1.3390411
C           3.5455577     0.7295883     2.7068637
H           4.1585311     1.4056014     3.3102764
H           3.4493663    -0.2189647     3.2456917
H           2.5405203     1.1655166     2.6373470
C           3.5634447    -0.3398723     0.3975497
C           4.1331561    -0.5110321    -0.8670920
H           3.6549635    -1.1718605    -1.5861789
C           5.3117124     0.1528048    -1.2083555
H           5.7541217     0.0047088    -2.1895346
O           2.4155553    -2.1043848     1.4781325
27
143_C14H11FO_6-7-21-16 (120,) energy =    -715.1753137
C           0.6281477     0.5595687    -0.4696968
F           1.5532975     1.5332685    -0.5760984
C          -0.6148368     0.7955714    -1.0488782
H          -0.7802762     1.7335218    -1.5685793
C          -1.6100003    -0.1728248    -0.9385545
H          -2.5812039     0.0035653    -1.3923644
C           0.9176400    -0.6216836     0.2267435
C           2.2238105    -0.9356270     0.8999488
C          -1.3615428    -1.3604925    -0.2416151
H          -2.1380010    -2.1140809    -0.1507590
C           5.8479046     1.0327465    -0.2978701
H           6.7716705     1.5214279    -0.5962319
C           5.3805792     1.1720857     1.0099911
H           5.9438474     1.7744819     1.7188798
C          -0.1157529    -1.5705893     0.3363215
H           0.1002853    -2.4768169     0.8927882
C           4.2018940     0.5518419     1.4388578
C           3.7353815     0.7051556     2.8688371
H           4.3760997     1.4068369     3.4113154
H           3.7501986    -0.2550639     3.3939112
H           2.7064631     1.0808834     2.9227661
C           3.4809242    -0.2136216     0.4997533
C           3.9356029    -0.3312487    -0.8185275
H           3.3553256    -0.9096683    -1.5334439
C           5.1262396     0.2734273    -1.2176572
H           5.4792536     0.1606239    -2.2389079
O           2.2557308    -1.7867907     1.7794338
27
143_C14H11FO_6-7-21-16 (135,) energy =    -715.1769665
C           0.5376417     0.5699430    -0.5208359
F           1.4094585     1.5945114    -0.6090941
C          -0.6783940     0.7072156    -1.1826035
H          -0.8672283     1.6136882    -1.7482168
C          -1.6193162    -0.3162018    -1.0918834
H          -2.5691872    -0.2181642    -1.6099665
C           0.8536853    -0.5628432     0.2401423
C           2.1256751    -0.7596198     1.0207242
C          -1.3446073    -1.4572150    -0.3307784
H          -2.0796125    -2.2527719    -0.2540677
C           5.8046984     1.0029431    -0.3153033
H           6.7426131     1.4382685    -0.6501649
C           5.4321404     1.1052041     1.0254845
H           6.0839376     1.6265003     1.7225679
C          -0.1274441    -1.5665333     0.3315775
H           0.1018961    -2.4335331     0.9425882
C           4.2404219     0.5489000     1.5049598
C           3.9017948     0.6601240     2.9741017
H           4.5615590     1.3829866     3.4640852
H           4.0109028    -0.3057861     3.4770529
H           2.8667171     0.9789103     3.1355372
C           3.3987974    -0.1045930     0.5772056
C           3.7645879    -0.1826476    -0.7737004
H           3.0991466    -0.6786573    -1.4754390
C           4.9707743     0.3493314    -1.2217127
H           5.2498522     0.2646141    -2.2681506
O           2.1031501    -1.4730073     2.0165986
27
143_C14H11FO_6-7-21-16 (150,) energy =    -715.1779002
C           0.4724369     0.5902244    -0.5620321
F           1.2886372     1.6619012    -0.6431379
C          -0.7153440     0.6301506    -1.2846520
H          -0.9321502     1.5041081    -1.8900535
C          -1.5955009    -0.4469679    -1.1998231
H          -2.5234639    -0.4267351    -1.7643562
C           0.8200844    -0.4936498     0.2522331