31
212_C14H14O2S_9-17-26-24 (-165,) energy =   -1090.4907426
C           0.4953996     0.7940479    -0.4492487
C           1.4179653     1.7090731    -1.2281096
H           1.0515343     2.7377413    -1.1629973
H           1.4715776     1.4188657    -2.2799962
H           2.4437273     1.6924781    -0.8480061
C          -0.7088694     1.3356159     0.0146456
H          -0.9310273     2.3766855    -0.2029283
C          -1.6144559     0.5695735     0.7399548
H          -2.5458455     1.0089140     1.0870635
C           0.7668281    -0.5663622    -0.1551039
C          -1.3206683    -0.7571316     1.0284719
H          -2.0246905    -1.3515338     1.6040887
C          -0.1302286    -1.3627538     0.5986467
C           0.0760616    -2.8133200     0.9872544
H          -0.7349707    -3.1251350     1.6522565
H           1.0271897    -2.9780441     1.4989397
H           0.0841384    -3.4696433     0.1141271
S           2.3109289    -1.2794304    -0.8088465
O           2.2915552    -2.7398018    -0.6264127
O           2.5456175    -0.7554914    -2.1648711
C           5.7393572     0.1402167     1.8836737
H           6.5684474     0.4446753     2.5163498
C           5.9869216    -0.3699718     0.6063037
H           7.0068331    -0.4630568     0.2441707
C           4.9268971    -0.7591295    -0.2102057
H           5.1059074    -1.1440744    -1.2091283
C           3.6173306    -0.6295635     0.2626378
C           3.3586855    -0.1336871     1.5410161
H           2.3393421    -0.0472111     1.9028471
C           4.4289700     0.2591515     2.3479670
H           4.2349236     0.6546595     3.3409920
31
212_C14H14O2S_9-17-26-24 (-150,) energy =   -1090.4919609
C           0.5863307     0.7249424    -0.4411732
C           1.5688771     1.5667249    -1.2282943
H           1.2343594     2.6080255    -1.2374566
H           1.6578985     1.2144468    -2.2586211
H           2.5759947     1.5422838    -0.8004419
C          -0.5954088     1.3400556    -0.0138344
H          -0.7563708     2.3867365    -0.2569070
C          -1.5568053     0.6379413     0.7045565
H          -2.4696181     1.1334053     1.0243486
C           0.7801601    -0.6409389    -0.1125637
C          -1.3458521    -0.6994103     1.0144643
H          -2.0976359    -1.2466652     1.5762853
C          -0.1815055    -1.3775471     0.6217792
C          -0.0772682    -2.8371170     1.0184498
H          -0.9469421    -3.1063432     1.6253941
H           0.8273839    -3.0513534     1.5921928
H          -0.0441283    -3.4938958     0.1461739
S           2.3131403    -1.4337940    -0.6973416
O           2.2761890    -2.8696132    -0.3768199
O           2.5581919    -1.0331969    -2.0934980
C           5.7430503     0.1897819     1.8696759
H           6.5732169     0.5413892     2.4759793
C           5.9491275    -0.1363609     0.5274027
H           6.9378589    -0.0396587     0.0879366
C           4.8857416    -0.5841903    -0.2564879
H           5.0236949    -0.8274000    -1.3050448
C           3.6180774    -0.6985167     0.3183241
C           3.4027024    -0.3891375     1.6627231
H           2.4137595    -0.4900142     2.0990887
C           4.4719540     0.0656481     2.4351372
H           4.3115420     0.3190834     3.4792521
31
212_C14H14O2S_9-17-26-24 (-135,) energy =   -1090.4926821
C           0.6316918     0.6898670    -0.4564179
C           1.6433425     1.4856383    -1.2538698
H           1.3094321     2.5235891    -1.3387183
H           1.7739611     1.0726849    -2.2566918
H           2.6315985     1.4909004    -0.7828443
C          -0.5381816     1.3463697    -0.0589994
H          -0.6676656     2.3909461    -0.3284892
C          -1.5283480     0.6872999     0.6607338
H          -2.4310315     1.2149437     0.9568523
C           0.7856531    -0.6722628    -0.0927338
C          -1.3606947    -0.6494956     0.9975956
H          -2.1373164    -1.1653258     1.5553783
C          -0.2103568    -1.3677260     0.6362398
C          -0.1608590    -2.8243341     1.0550764
H          -1.0585215    -3.0607994     1.6342710
H           0.7164110    -3.0565700     1.6633387
H          -0.1160726    -3.4944192     0.1934779
S           2.3113990    -1.5187521    -0.6236458
O           2.2497816    -2.9331635    -0.2234707
O           2.5731314    -1.1897971    -2.0354966
C           5.7283324     0.2441036     1.8665703
H           6.5530712     0.6369006     2.4547630
C           5.8588724     0.1158023     0.4826316
H           6.7836573     0.4063001    -0.0077553
C           4.8002478    -0.3838455    -0.2779727
H           4.8749955    -0.4844515    -1.3557492
C           3.6177781    -0.7511001     0.3650244
C           3.4792601    -0.6393503     1.7502838
H           2.5553133    -0.9369932     2.2369557
C           4.5397842    -0.1311195     2.4991486
H           4.4398660    -0.0319352     3.5762825
31
212_C14H14O2S_9-17-26-24 (-120,) energy =   -1090.4927678
C           0.6473192     0.6783844    -0.5248516
C           1.6609074     1.4398624    -1.3523379
H           1.3199514     2.4694352    -1.4928548
H           1.8059189     0.9783879    -2.3314823
H           2.6427333     1.4785842    -0.8697847
C          -0.5199651     1.3573235    -0.1570643
H          -0.6428756     2.3898870    -0.4720220
C          -1.5145585     0.7367479     0.5892708
H          -2.4146402     1.2816750     0.8609757
C           0.7943291    -0.6677842    -0.1033032
C          -1.3537193    -0.5847389     0.9841212
H          -2.1336461    -1.0716283     1.5629072
C          -0.2071817    -1.3238761     0.6551990
C          -0.1713390    -2.7612242     1.1380354
H          -1.0675300    -2.9605831     1.7332360
H           0.7060636    -2.9788288     1.7516508
H          -0.1406921    -3.4693479     0.3069222
S           2.3131709    -1.5558350    -0.5947648
O           2.2146747    -2.9592748    -0.1663879
O           2.5977992    -1.2528439    -2.0076237
C           5.7114586     0.2416867     1.8993636
H           6.5267575     0.6528111     2.4882225
C           5.7422477     0.3363549     0.5072585
H           6.5807366     0.8164499     0.0107016
C           4.6948689    -0.1870474    -0.2538774
H           4.6979071    -0.1314845    -1.3373530
C           3.6271897    -0.8053824     0.3967517
C           3.5915402    -0.9176972     1.7887819
H           2.7614233    -1.4172099     2.2786721
C           4.6377029    -0.3842953     2.5394895
H           4.6184905    -0.4624891     3.6228008
31
212_C14H14O2S_9-17-26-24 (-105,) energy =   -1090.4920856
C           0.6433626     0.6807390    -0.6263320
C           1.6335069     1.4163306    -1.5041068
H           1.2528632     2.4177373    -1.7237631
H           1.8116268     0.8899784    -2.4433579
H           2.6040539     1.5341765    -1.0117569
C          -0.5263044     1.3681161    -0.2801310
H          -0.6658971     2.3781723    -0.6552094
C          -1.5008579     0.7870392     0.5210859
H          -2.4016801     1.3394363     0.7745347
C           0.8123415    -0.6372069    -0.1291966
C          -1.3168226    -0.5046888     0.9955031
H          -2.0797534    -0.9616721     1.6194628
C          -0.1691153    -1.2514921     0.6906658
C          -0.1144026    -2.6544481     1.2651508
H          -0.9901422    -2.8139270     1.9013138
H           0.7805196    -2.8317343     1.8663960
H          -0.1087236    -3.4150429     0.4816995
S           2.3258222    -1.5593385    -0.5909821
O           2.1791965    -2.9616191    -0.1739750
O           2.6466597    -1.2510744    -1.9945753
C           5.6850201     0.1983975     1.9873110
H           6.4829479     0.6111171     2.5984028
C           5.6047318     0.5271338     0.6332212
H           6.3419009     1.1883968     0.1866794
C           4.5798283     0.0011092    -0.1557013
H           4.5162562     0.2197207    -1.2159354
C           3.6463126    -0.8575418     0.4265162
C           3.7263027    -1.2054107     1.7773227
H           3.0101085    -1.8985297     2.2060791
C           4.7494823    -0.6695125     2.5576139
H           4.8216128    -0.9355725     3.6083381
31
212_C14H14O2S_9-17-26-24 (-90,) energy =   -1090.4911981
C           0.5321266     0.6881779    -0.8936020
C           1.3827756     1.3662284    -1.9498458
H           0.9314378     2.3279379    -2.2108266
H           1.4712729     0.7611678    -2.8535817
H           2.4009554     1.5603345    -1.6026262
C          -0.6600312     1.3405331    -0.5495130
H          -0.9029125     2.2728680    -1.0514607
C          -1.5266708     0.8266777     0.4056456
H          -2.4455943     1.3524997     0.6504397
C           0.8326110    -0.5305724    -0.2318507
C          -1.2075227    -0.3611929     1.0498498
H          -1.8794691    -0.7635868     1.8027121
C          -0.0332483    -1.0671165     0.7560387
C           0.1970572    -2.3429533     1.5407981
H          -0.6128351    -2.4727469     2.2644155
H           1.1363201    -2.3152035     2.1005926
H           0.2388241    -3.2200528     0.8937029
S           2.3524193    -1.4520332    -0.6880215
O           2.1239260    -2.8824524    -0.4311789
O           2.7821856    -1.0175895    -2.0257018
C           5.6331805    -0.1002493     2.2198222
H           6.4152815     0.2163380     2.9043507
C           5.4226391     0.6013236     1.0305392
H           6.0456454     1.4562529     0.7835060
C           4.4225271     0.1967578     0.1465509
H           4.2774158     0.7072025    -0.7988356
C           3.6277823    -0.9046784     0.4729531
C           3.8528272    -1.6333830     1.6430485
H           3.2747300    -2.5288937     1.8399918
C           4.8562624    -1.2209547     2.5203105
H           5.0392915    -1.7839172     3.4311670
31
212_C14H14O2S_9-17-26-24 (-75,) energy =   -1090.4923229
C           0.4659018     0.6745485    -1.0783912
C           1.1854212     1.2274958    -2.2939558
H           0.6569429     2.1180182    -2.6471590
H           1.2277780     0.5010311    -3.1081573
H           2.2207678     1.5053428    -2.0821368
C          -0.7156872     1.3329557    -0.7058217
H          -1.0363700     2.1891542    -1.2926113
C          -1.4775656     0.9189089     0.3785762
H          -2.3882854     1.4503561     0.6413182
C           0.8635108    -0.4429186    -0.3010996
C          -1.0693250    -0.1800361     1.1240963
H          -1.6629729    -0.5104299     1.9719421
C           0.0971021    -0.8861467     0.8071571
C           0.4423677    -2.0709702     1.6839185
H          -0.3054311    -2.1703007     2.4756691
H           1.4183000    -1.9525003     2.1654301
H           0.4780028    -2.9996703     1.1112028
S           2.3811415    -1.3698308    -0.7314082
O           2.1010979    -2.8090369    -0.5938280
O           2.9168252    -0.8560125    -2.0007467
C           5.5535970    -0.3132695     2.4034275
H           6.3211873    -0.0689412     3.1325213
C           5.1732306     0.6355967     1.4499917
H           5.6475943     1.6126796     1.4328571
C           4.1945697     0.3258070     0.5072794
H           3.9126496     1.0474048    -0.2525511
C           3.5865136    -0.9317048     0.5447526
C           3.9755090    -1.8951987     1.4762525
H           3.5231306    -2.8804206     1.4454963
C           4.9621748    -1.5773419     2.4118648
H           5.2730898    -2.3212400     3.1398946
31
212_C14H14O2S_9-17-26-24 (-60,) energy =   -1090.4928105
C           0.4825199     0.6491481    -1.1468252
C           1.1802805     1.1303050    -2.4045755
H           0.6528502     2.0067583    -2.7929101
H           1.1971045     0.3617343    -3.1804875
H           2.2234254     1.4042056    -2.2293064
C          -0.6795666     1.3414724    -0.7733860
H          -1.0046662     2.1747068    -1.3901001
C          -1.4164349     0.9888157     0.3495730
H          -2.3117785     1.5460632     0.6117816
C           0.8838761    -0.4355185    -0.3279512
C          -1.0046808    -0.0816862     1.1345877
H          -1.5802799    -0.3640111     2.0117874
C           0.1418231    -0.8190816     0.8181708
C           0.4960272    -1.9771784     1.7267610
H          -0.2036814    -2.0114061     2.5665686
H           1.5059005    -1.8862254     2.1391753
H           0.4559360    -2.9297094     1.1937331
S           2.3737104    -1.4068883    -0.7401767
O           2.0593406    -2.8385127    -0.5945658
O           2.9342635    -0.9219430    -2.0105892
C           5.5187656    -0.3646222     2.4247787
H           6.2810123    -0.1229452     3.1603447
C           4.9466706     0.6533697     1.6560372
H           5.2643283     1.6833048     1.7914435
C           3.9720517     0.3491330     0.7072734
H           3.5316382     1.1337284     0.0996067
C           3.5678913    -0.9787621     0.5496995
C           4.1348373    -2.0041709     1.3064691
H           3.8062390    -3.0260974     1.1489741
C           5.1168479    -1.6894522     2.2481848
H           5.5664589    -2.4802968     2.8419047
31
212_C14H14O2S_9-17-26-24 (-45,) energy =   -1090.4925385
C           0.4971408     0.6346366    -1.1714315
C           1.1962319     1.0576338    -2.4487896
H           0.6864377     1.9327596    -2.8628670
H           1.1897155     0.2633312    -3.1985982
H           2.2466089     1.3113906    -2.2875261
C          -0.6473204     1.3625575    -0.8107849
H          -0.9624978     2.1806014    -1.4525021
C          -1.3783298     1.0637741     0.3316265
H          -2.2596975     1.6478102     0.5827081
C           0.8842281    -0.4282714    -0.3186183
C          -0.9786575     0.0144633     1.1514905
H          -1.5493194    -0.2239501     2.0448165
C           0.1495343    -0.7559190     0.8493298
C           0.4958477    -1.8887468     1.7925938
H          -0.1731243    -1.8633696     2.6574583
H           1.5235971    -1.8227340     2.1632984
H           0.4009084    -2.8593674     1.3002455
S           2.3440115    -1.4493513    -0.7078949
O           1.9979143    -2.8687066    -0.5197200
O           2.9081537    -1.0238321    -1.9985480
C           5.5201284    -0.3848014     2.4196046
H           6.2899669    -0.1395171     3.1459822
C           4.7562946     0.6343796     1.8446550
H           4.9301189     1.6700461     2.1225970
C           3.7678731     0.3260465     0.9104339
H           3.1717240     1.1142942     0.4607161
C           3.5506137    -1.0099947     0.5672023
C           4.3019833    -2.0375390     1.1390074
H           4.0985432    -3.0666372     0.8617251
C           5.2942069    -1.7166448     2.0667248
H           5.8860218    -2.5085426     2.5170043
31
212_C14H14O2S_9-17-26-24 (-30,) energy =   -1090.4916242
C           0.5260659     0.6146967    -1.1931947
C           1.2723322     1.0051327    -2.4537959
H           0.8144251     1.9041206    -2.8772723
H           1.2435605     0.2121187    -3.2045142
H           2.3297821     1.2077046    -2.2687232
C          -0.6105597     1.3731441    -0.8729600
H          -0.8914307     2.1878596    -1.5345109
C          -1.3749296     1.1093853     0.2563377
H          -2.2494493     1.7160175     0.4758535
C           0.8666796    -0.4437850    -0.3154222
C          -1.0144582     0.0701592     1.1067493
H          -1.6077409    -0.1356652     1.9934153
C           0.1039623    -0.7291217     0.8455408
C           0.4126336    -1.8417175     1.8257997
H          -0.2435206    -1.7545160     2.6966010
H           1.4472676    -1.8112136     2.1808540
H           0.2674885    -2.8242088     1.3705833
S           2.3006020    -1.5140849    -0.6628459
O           1.9297856    -2.9138574    -0.3940193
O           2.8516903    -1.1808612    -1.9862638
C           5.5455389    -0.3745199     2.3703753
H           6.3307266    -0.1160880     3.0754139
C           4.6112524     0.5889639     1.9853523
H           4.6661668     1.5955722     2.3901666
C           3.6001045     0.2635249     1.0797413
H           2.8717338     1.0099370     0.7789732
C           3.5372679    -1.0340400     0.5692867
C           4.4582231    -2.0102407     0.9573881
H           4.3702198    -3.0189823     0.5671782
C           5.4687098    -1.6713377     1.8566744
H           6.1908572    -2.4231307     2.1622728
31
212_C14H14O2S_9-17-26-24 (-15,) energy =   -1090.4905568
C           0.5316508     0.6003174    -1.1759253
C           1.3531854     0.9697908    -2.3950703
H           0.9733503     1.9070325    -2.8128524
H           1.3033018     0.1974655    -3.1659149
H           2.4129555     1.0985193    -2.1626828
C          -0.5942109     1.3935436    -0.9089144
H          -0.8204836     2.2144170    -1.5836488
C          -1.4140717     1.1570046     0.1873329
H          -2.2800155     1.7887083     0.3664742
C           0.7999794    -0.4673482    -0.2839914
C          -1.1159310     0.1175592     1.0610408
H          -1.7475615    -0.0603691     1.9270022
C          -0.0105487    -0.7156449     0.8527583
C           0.2341969    -1.8140785     1.8671419
H          -0.4244701    -1.6673879     2.7282160
H           1.2660132    -1.8275293     2.2300535
H           0.0427078    -2.8012313     1.4401793
S           2.2018823    -1.5907050    -0.5906722
O           1.8111560    -2.9583660    -0.2102694
O           2.7135715    -1.3746029    -1.9537336
C           5.5869503    -0.3441401     2.2436396
H           6.4047109    -0.0653624     2.9023420
C           4.5108555     0.5250393     2.0632656
H           4.4868309     1.4799478     2.5807145
C           3.4561266     0.1727159     1.2174527
H           2.6189056     0.8481071     1.0758061
C           3.4953040    -1.0558775     0.5577289
C           4.5634472    -1.9400346     0.7407366
H           4.5637077    -2.9013275     0.2368098
C           5.6120373    -1.5754865     1.5824866
H           6.4463071    -2.2559088     1.7275878
31
212_C14H14O2S_9-17-26-24 (0,) energy =   -1090.4899926
C           0.6351138     0.5638103    -1.0764323
C           1.6048911     0.9174004    -2.1861573
H           1.3638360     1.9125627    -2.5718459
H           1.5543874     0.1999663    -3.0083367
H           2.6445731     0.9241535    -1.8485288
C          -0.4682974     1.4096965    -0.9016387
H          -0.5838328     2.2580299    -1.5705440
C          -1.4033393     1.1887152     0.1024826
H          -2.2521397     1.8581479     0.2138370
C           0.7611102    -0.5398085    -0.1959386
C          -1.2386869     0.1206116     0.9761121
H          -1.9568748    -0.0392380     1.7755398
C          -0.1584812    -0.7645093     0.8588957
C          -0.0647892    -1.8756608     1.8852834
H          -0.7973152    -1.6963645     2.6780362
H           0.9257565    -1.9406653     2.3431670
H          -0.2610119    -2.8534144     1.4396835
S           2.1348125    -1.7132038    -0.4406493
O           1.7652618    -3.0188337     0.1297432
O           2.5550220    -1.6772258    -1.8508666
C           5.6948782    -0.1938469     2.0218490
H           6.5517340     0.1448824     2.5975124
C           4.5092214     0.5397879     2.0407905
H           4.4385220     1.4499938     2.6296165
C           3.4032274     0.1091831     1.3025701
H           2.4806306     0.6795160     1.3174748
C           3.5020585    -1.0605729     0.5494764
C           4.6872813    -1.8040629     0.5234572
H           4.7464877    -2.7123673    -0.0679312
C           5.7825410    -1.3650241     1.2629634
H           6.7057349    -1.9372853     1.2475958
31
212_C14H14O2S_9-17-26-24 (15,) energy =   -1090.4905569
C           0.7288241     0.5271239    -0.9620330
C           1.7970766     0.8297974    -1.9928543
H           1.6429237     1.8368128    -2.3915655
H           1.7687063     0.1149152    -2.8184184
H           2.8073257     0.7829245    -1.5760241
C          -0.3371450     1.4283129    -0.8571043
H          -0.3564725     2.2924049    -1.5155017
C          -1.3588812     1.2367255     0.0659584
H          -2.1790453     1.9470666     0.1271033
C           0.7345070    -0.5946895    -0.0946765
C          -1.3218832     0.1408025     0.9188745
H          -2.1140859    -0.0005091     1.6487676
C          -0.2819395    -0.7995669     0.8709075
C          -0.3491995    -1.9427457     1.8640863
H          -1.1777572    -1.7675683     2.5569313
H           0.5707227    -2.0484120     2.4439930
H          -0.5060513    -2.9024251     1.3665273
S           2.0883650    -1.8014574    -0.2739126
O           1.7539842    -3.0265173     0.4703168
O           2.4266226    -1.9329825    -1.7008530
C           5.7739722    -0.0263307     1.8023898
H           6.6591201     0.3711246     2.2911428
C           4.5277136     0.5535064     2.0402760
H           4.4390130     1.4027787     2.7118821
C           3.3855076     0.0470644     1.4150995
H           2.4156328     0.4968944     1.5998802
C           3.5089687    -1.0433467     0.5536949
C           4.7552559    -1.6246233     0.2986600
H           4.8337675    -2.4572089    -0.3931952
C           5.8863965    -1.1143194     0.9319790
H           6.8574506    -1.5621500     0.7408468
31
212_C14H14O2S_9-17-26-24 (30,) energy =   -1090.4916242
C           0.8056276     0.4812195    -0.9294253
C           1.9185377     0.7138353    -1.9300939
H           1.8049440     1.7044563    -2.3797733
H           1.9040913    -0.0380661    -2.7225546
H           2.9106786     0.6654806    -1.4709968
C          -0.2220901     1.4292120    -0.8747658
H          -0.1789926     2.2850955    -1.5427125
C          -1.2864469     1.2914249     0.0091524
H          -2.0761615     2.0375875     0.0329372
C           0.7327487    -0.6278009    -0.0485776
C          -1.3348410     0.1990077     0.8655856
H          -2.1651909     0.0945622     1.5583395
C          -0.3360250    -0.7868870     0.8675444
C          -0.5077612    -1.9278831     1.8509644
H          -1.3873316    -1.7355853     2.4727208
H           0.3592360    -2.0521244     2.5039135
H          -0.6425232    -2.8851802     1.3423243
S           2.0592485    -1.8734323    -0.1539869
O           1.7196715    -3.0242863     0.6982831
O           2.3701607    -2.1231622    -1.5717761
C           5.7856378     0.0237012     1.7285117
H           6.6786158     0.4510232     2.1761434
C           4.5242083     0.4404761     2.1580413
H           4.4331704     1.1920357     2.9371579
C           3.3729712    -0.1047730     1.5872150
H           2.3908791     0.2176355     1.9183635
C           3.5022823    -1.0668572     0.5842912
C           4.7589557    -1.4819736     0.1368494
H           4.8317328    -2.2109338    -0.6637101
C           5.9019451    -0.9359779     0.7200360
H           6.8833768    -1.2545784     0.3803855
31
212_C14H14O2S_9-17-26-24 (45,) energy =   -1090.4925389
C           0.8458137     0.4530739    -0.9272546
C           1.9773865     0.6334856    -1.9171688
H           1.8700886     1.5958813    -2.4255246
H           1.9821397    -0.1629825    -2.6649720
H           2.9596633     0.6183914    -1.4345680
C          -0.1616125     1.4238749    -0.9131946
H          -0.0873725     2.2628880    -1.5995400
C          -1.2461760     1.3279840    -0.0485912
H          -2.0198282     2.0911131    -0.0558608
C           0.7343877    -0.6329485    -0.0220530
C          -1.3380900     0.2518605     0.8244370
H          -2.1878680     0.1763486     1.4971125
C          -0.3612781    -0.7550397     0.8675416
C          -0.5880108    -1.8792347     1.8595486
H          -1.4973824    -1.6733691     2.4321317
H           0.2437526    -1.9956857     2.5583003
H          -0.7008841    -2.8449589     1.3616924
S           2.0464667    -1.8986215    -0.0617692
O           1.7063850    -2.9850955     0.8704560
O           2.3418123    -2.2357796    -1.4649668
C           5.7890408     0.0806639     1.6922860
H           6.6845177     0.5284200     2.1142612
C           4.5491518     0.3034648     2.2970422
H           4.4788558     0.9230357     3.1865734
C           3.3962438    -0.2698270     1.7613441
H           2.4304214    -0.1000491     2.2275358
C           3.5000478    -1.0586183     0.6137402
C           4.7313181    -1.2833998    -0.0033975
H           4.7759546    -1.8893357    -0.9023830
C           5.8798064    -0.7114564     0.5461089
H           6.8436993    -0.8810402     0.0746601
31
212_C14H14O2S_9-17-26-24 (60,) energy =   -1090.4928106
C           0.8494609     0.4080076    -0.9800856
C           1.9775142     0.5454533    -1.9804945
H           1.8553961     1.4740333    -2.5451847
H           1.9960430    -0.2938121    -2.6793080
H           2.9587917     0.5774491    -1.4965131
C          -0.1521321     1.3850422    -1.0029269
H          -0.0747000     2.1940390    -1.7240619
C          -1.2342443     1.3330973    -0.1322237
H          -2.0026244     2.1006493    -0.1690862
C           0.7350348    -0.6391143    -0.0304494
C          -1.3304620     0.2939892     0.7839381
H          -2.1791997     0.2507136     1.4607675
C          -0.3603454    -0.7166679     0.8652855
C          -0.5984767    -1.7993476     1.9003812
H          -1.5069045    -1.5628480     2.4625069
H           0.2294926    -1.8967474     2.6066726
H          -0.7193340    -2.7827800     1.4407156
S           2.0398241    -1.9159296    -0.0121499
O           1.6829348    -2.9617600     0.9585139
O           2.3443625    -2.2998894    -1.4011669
C           5.7859648     0.0822821     1.7106522
H           6.6816042     0.5357082     2.1262385
C           4.6014417     0.0758904     2.4532306
H           4.5760728     0.5207478     3.4439237
C           3.4503967    -0.5086506     1.9278970
H           2.5302282    -0.5263325     2.5039034
C           3.4957781    -1.0699729     0.6494787
C           4.6727014    -1.0748799    -0.0991400
H           4.6753544    -1.5310031    -1.0835443
C           5.8226032    -0.4942688     0.4401565
H           6.7452093    -0.4939642    -0.1333349
31
212_C14H14O2S_9-17-26-24 (75,) energy =   -1090.4923231
C           0.8312897     0.3775092    -1.0539523
C           1.9446714     0.4801799    -2.0745356
H           1.7810652     1.3569737    -2.7073137
H           1.9957691    -0.4086053    -2.7063661
H           2.9246728     0.5943108    -1.6003230
C          -0.1754406     1.3484341    -1.1121911
H          -0.1116359     2.1189929    -1.8754705
C          -1.2440855     1.3399994    -0.2244671
H          -2.0157389     2.1023060    -0.2900999
C           0.7356062    -0.6211378    -0.0511183
C          -1.3213718     0.3502594     0.7462207
H          -2.1591879     0.3400323     1.4377497
C          -0.3466722    -0.6518869     0.8647412
C          -0.5701146    -1.6767292     1.9605476
H          -1.4671340    -1.4056641     2.5253165
H           0.2682313    -1.7386510     2.6586430
H          -0.7026087    -2.6827503     1.5570239
S           2.0389497    -1.9031098     0.0218730
O           1.6546808    -2.9264021     1.0054354
O           2.3680648    -2.3098656    -1.3546720
C           5.7880923     0.0687473     1.7721424
H           6.6842580     0.5164582     2.1927539
C           4.6871368    -0.1874071     2.5945569
H           4.7285709     0.0540538     3.6528474
C           3.5373764    -0.7684605     2.0626763
H           2.6883874    -0.9948396     2.6994623
C           3.4939438    -1.0671666     0.6983711
C           4.5956087    -0.8385847    -0.1271184
H           4.5504701    -1.1310650    -1.1705128
C           5.7454331    -0.2627593     0.4171543
H           6.6088928    -0.0825725    -0.2169187
31
212_C14H14O2S_9-17-26-24 (90,) energy =   -1090.4911984
C           0.2912128     0.8405836    -0.2317911
C           0.9660102     2.0755120    -0.7942174
H           0.3343567     2.9487211    -0.6073832
H           1.1468230     1.9910877    -1.8665627
H           1.9344173     2.2636636    -0.3217781
C          -0.9735146     1.0304146     0.3408163
H          -1.3962456     2.0311722     0.3420352
C          -1.6885556    -0.0212296     0.8982804
H          -2.6690185     0.1532545     1.3330969
C           0.8291562    -0.4724164    -0.2290160
C          -1.1389982    -1.2961782     0.9012045
H          -1.6924820    -2.1205705     1.3419392
C           0.1212482    -1.5592676     0.3464180
C           0.5977984    -2.9965783     0.4240146
H          -0.1270575    -3.5844612     0.9946999
H           1.5659492    -3.0874188     0.9234271
H           0.7136521    -3.4427781    -0.5649835
S           2.4569742    -0.7756735    -1.0196424
O           2.5566652    -2.2033200    -1.3582776
O           2.6582175     0.2327672    -2.0716690
C           5.6426368     0.0124343     2.1860926
H           6.4022345     0.1961498     2.9409083
C           5.0827296    -1.2606735     2.0571213
H           5.4123059    -2.0699736     2.7024765
C           4.1100290    -1.5028799     1.0873120
H           3.6985889    -2.4964054     0.9495112
C           3.6940497    -0.4558324     0.2614529
C           4.2723518     0.8117104     0.3595735
H           3.9891542     1.5890225    -0.3408125
C           5.2451626     1.0435206     1.3324220
H           5.7015947     2.0259659     1.4133474
31
212_C14H14O2S_9-17-26-24 (105,) energy =   -1090.4920857
C           0.2014324     0.9196014    -0.4388133
C           0.7115924     2.0968157    -1.2482857
H           0.0125418     2.9318806    -1.1431992
H           0.8057357     1.8515006    -2.3081610
H           1.6990832     2.4363412    -0.9267684
C          -1.0475125     1.0901141     0.1768389
H          -1.5617457     2.0383804     0.0481953
C          -1.6366883     0.0864183     0.9337604
H          -2.6058654     0.2490710     1.3975705
C           0.8537223    -0.3277119    -0.2617929
C          -0.9793448    -1.1267748     1.0935194
H          -1.4366099    -1.9159427     1.6838261
C           0.2686266    -1.3673060     0.5059358
C           0.8883249    -2.7267933     0.7506131
H           0.2269271    -3.3200527     1.3882252
H           1.8533893    -2.6478410     1.2611717
H           1.0615403    -3.2669948    -0.1816856
S           2.4749692    -0.6331429    -1.0569526
O           2.4949633    -2.0200136    -1.5511374