23
289_C8H11ClN2O_1-0-12-10 (-165,) energy =    -956.3807243
C           2.1207558     0.4781192    -1.1041674
N           1.5865311    -0.8088797    -0.9774427
C           0.5790769    -1.1630451    -1.9745089
H           0.9108813    -0.8347921    -2.9595452
H          -0.3914642    -0.6902584    -1.7665486
H           0.4516833    -2.2505228    -1.9705402
C           1.3055342    -1.3507175     0.3525648
H           1.4499774    -2.4372942     0.3651699
H           1.9608772    -0.8956775     1.0962475
H           0.2662890    -1.1401164     0.6467808
C           3.7945621     2.1141717    -0.0361800
Cl          2.9761454     3.6131497    -0.3382727
C           3.3013805     0.8298888    -0.2762059
N           4.3080752    -0.0479153     0.1496004
C           4.4081490    -1.4876473    -0.0707448
H           5.4626013    -1.7468972    -0.1894549
H           3.8662819    -1.7631754    -0.9748408
H           3.9992986    -2.0546274     0.7722088
C           5.3454324     0.6776068     0.6667184
H           6.2268144     0.1765402     1.0424236
C           5.0556824     2.0229722     0.5851211
H           5.6701229     2.8452104     0.9211630
O           1.7055941     1.2532151    -1.9574001
23
289_C8H11ClN2O_1-0-12-10 (-150,) energy =    -956.3834864
C           2.1805173     0.4628249    -1.2301550
N           1.5353941    -0.7446730    -0.9802166
C           0.5218753    -1.1431643    -1.9514547
H           0.8554511    -0.8728002    -2.9530142
H          -0.4408744    -0.6455404    -1.7654339
H           0.3761365    -2.2266802    -1.8867940
C           1.2723913    -1.2015942     0.3811585
H           1.3656574    -2.2924055     0.4458066
H           1.9714091    -0.7414216     1.0801993
H           0.2529143    -0.9289120     0.6926812
C           3.7494368     2.1010772     0.0065621
Cl          2.8871805     3.5828537    -0.2618363
C           3.3247527     0.8253919    -0.3527518
N           4.3208144    -0.0511183     0.0812645
C           4.4424677    -1.4723461    -0.2219402
H           5.4965566    -1.7489292    -0.1503647
H           4.0911056    -1.6752580    -1.2345289
H           3.8695447    -2.0880910     0.4784936
C           5.3064542     0.6657491     0.7065045
H           6.1803193     0.1651096     1.0995698
C           4.9769545     2.0044928     0.6962968
H           5.5439193     2.8190507     1.1225123
O           1.8808733     1.1642740    -2.1895659
23
289_C8H11ClN2O_1-0-12-10 (-135,) energy =    -956.3847874
C           2.2684342     0.3927246    -1.2917167
N           1.5247804    -0.7222587    -0.9425009
C           0.5133998    -1.1690212    -1.8922360
H           0.8390113    -0.9222065    -2.9021310
H          -0.4546639    -0.6796731    -1.7120740
H           0.3806126    -2.2521871    -1.7943862
C           1.2859073    -1.1151925     0.4400695
H           1.3370259    -2.2064715     0.5431101
H           2.0249324    -0.6603069     1.0998850
H           0.2876788    -0.7913738     0.7697148
C           3.6978055     2.0564323     0.0950785
Cl          2.7554695     3.4972450    -0.1331861
C           3.3713263     0.7907220    -0.3699347
N           4.3786540    -0.0619586     0.0688825
C           4.5735343    -1.4464182    -0.3405445
H           5.5395386    -1.7816422     0.0423957
H           4.5796664    -1.5302438    -1.4312451
H           3.7925484    -2.0986187     0.0585761
C           5.2969876     0.6613463     0.7876093
H           6.1765047     0.1805132     1.1923682
C           4.8964730     1.9790371     0.8414342
H           5.3945047     2.7916581     1.3496114
O           2.0788057     0.9993667    -2.3401737
23
289_C8H11ClN2O_1-0-12-10 (-120,) energy =    -956.3851092
C           2.3416059     0.3303449    -1.3877434
N           1.4748405    -0.6495556    -0.9512415
C           0.4646026    -1.1365456    -1.8806891
H           0.7838892    -0.9087460    -2.8968496
H          -0.5063175    -0.6540735    -1.7001613
H           0.3423848    -2.2190516    -1.7575468
C           1.2512614    -0.9785096     0.4482830
H           1.3076597    -2.0639354     0.6043037
H           1.9945708    -0.4892138     1.0776163
H           0.2545342    -0.6428824     0.7677839
C           3.6509455     2.0200344     0.1070558
Cl          2.6387773     3.4190971    -0.0944501
C           3.4061738     0.7674943    -0.4288898
N           4.4351258    -0.0562771     0.0002941
C           4.6634044    -1.4248745    -0.4385854
H           5.5910521    -1.7815161     0.0133522
H           4.7608735    -1.4710935    -1.5278929
H           3.8459815    -2.0826232    -0.1292710
C           5.2994379     0.6716415     0.7815554
H           6.1867269     0.2108855     1.1923913
C           4.8344596     1.9648191     0.8829433
H           5.2802731     2.7759533     1.4397523
O           2.2858924     0.8021770    -2.5182551
23
289_C8H11ClN2O_1-0-12-10 (-105,) energy =    -956.3854801
C           2.4391811     0.1575631    -1.3658785
N           1.4197671    -0.6438907    -0.9133111
C           0.4520171    -1.1569156    -1.8729297
H           0.8309895    -0.9757065    -2.8778252
H          -0.5173377    -0.6533985    -1.7565071
H           0.3040372    -2.2324205    -1.7163000
C           1.0901171    -0.8430385     0.4891293
H           1.0219100    -1.9150760     0.7159604
H           1.8538480    -0.3923765     1.1228493
H           0.1219218    -0.3821280     0.7281982
C           3.5867194     1.8870258     0.2425641
Cl          2.4405323     3.1940319     0.1427068
C           3.4282457     0.6441608    -0.3417817
N           4.5530273    -0.0927010    -0.0194716
C           4.8545566    -1.4200429    -0.5322429
H           5.8359929    -1.7223437    -0.1620268
H           4.8725661    -1.4104282    -1.6264791
H           4.1107892    -2.1499769    -0.1960071
C           5.3856229     0.6694340     0.7642081
H           6.3213213     0.2657434     1.1243463
C           4.8108632     1.9070009     0.9564590
H           5.2081663     2.7274777     1.5358734
O           2.6040203     0.4175354    -2.5539747
23
289_C8H11ClN2O_1-0-12-10 (-90,) energy =    -956.3876603
C           2.4852222    -0.0608737    -1.2713397
N           1.3303288    -0.6636409    -0.8456023
C           0.3815268    -1.1467600    -1.8389329
H           0.8486157    -1.0881010    -2.8210231
H          -0.5326570    -0.5379256    -1.8324486
H           0.1063442    -2.1855980    -1.6188826
C           0.8756988    -0.6939579     0.5353803
H           0.5929355    -1.7179586     0.8112392
H           1.6708860    -0.3540782     1.1984897
H           0.0001241    -0.0460076     0.6755001
C           3.5093329     1.6881577     0.4019697
Cl          2.2299762     2.8713183     0.4380191
C           3.4291447     0.4517727    -0.2191343
N           4.6618724    -0.1514372    -0.0433062
C           5.0580803    -1.4253033    -0.6248714
H           6.1075417    -1.6058751    -0.3847029
H           4.9325284    -1.3932866    -1.7101501
H           4.4563418    -2.2455378    -0.2185667
C           5.4665800     0.6653793     0.7086056
H           6.4605443     0.3470082     0.9897186
C           4.7803765     1.8234262     1.0086967
H           5.1357414     2.6613555     1.5902585
O           2.8151556    -0.0139925    -2.4553156
23
289_C8H11ClN2O_1-0-12-10 (-75,) energy =    -956.3902728
C           2.5073404    -0.2195990    -1.2547741
N           1.2776249    -0.6558095    -0.8370761
C           0.3198030    -1.1164804    -1.8320296
H           0.7851137    -1.0569378    -2.8147971
H          -0.5835704    -0.4929526    -1.8110993
H           0.0276979    -2.1545293    -1.6268037
C           0.8024705    -0.6315191     0.5366735
H           0.4064954    -1.6196630     0.8049143
H           1.6196489    -0.3837119     1.2131224
H           0.0019892     0.1080391     0.6664213
C           3.4383082     1.5599019     0.4417381
Cl          2.0930909     2.6651534     0.5233412
C           3.4379482     0.3397160    -0.2224798
N           4.7161357    -0.1740101    -0.0848556
C           5.1937075    -1.4151658    -0.6794412
H           6.2605656    -1.5105132    -0.4683542
H           5.0293074    -1.3938502    -1.7584009
H           4.6707823    -2.2786984    -0.2540337
C           5.4692036     0.6739897     0.6821263
H           6.4884083     0.4216126     0.9389265
C           4.7069257     1.7706894     1.0282270
H           5.0133816     2.6179852     1.6237675
O           2.8888649    -0.3279096    -2.4215549
23
289_C8H11ClN2O_1-0-12-10 (-60,) energy =    -956.3919008
C           2.5089847    -0.2919830    -1.2006970
N           1.2261468    -0.5557696    -0.7960813
C           0.2673602    -1.0271055    -1.7847991
H           0.7052805    -0.9208959    -2.7761039
H          -0.6561963    -0.4391660    -1.7176302
H           0.0179805    -2.0836625    -1.6145487
C           0.7555782    -0.5422267     0.5794313
H           0.3480930    -1.5292833     0.8382946
H           1.5757419    -0.3135339     1.2583008
H          -0.0349001     0.2049186     0.7188568
C           3.3976592     1.5302138     0.4833462
Cl          2.0317380     2.6075382     0.5810618
C           3.4434818     0.3268855    -0.2154010
N           4.7410095    -0.1416087    -0.0891180
C           5.2642212    -1.3684090    -0.6789504
H           6.3313009    -1.4264703    -0.4553595
H           5.1054438    -1.3561036    -1.7577394
H           4.7659207    -2.2471142    -0.2556136
C           5.4628252     0.7183066     0.6914496
H           6.4934394     0.5027161     0.9359353
C           4.6616706     1.7791372     1.0622427
H           4.9415027     2.6296187     1.6662512
O           2.9070852    -0.5541277    -2.3389472
23
289_C8H11ClN2O_1-0-12-10 (-45,) energy =    -956.3921664
C           2.5517470    -0.3977096    -1.1914312
N           1.2303800    -0.4933316    -0.8300194
C           0.2932000    -1.0050040    -1.8204716
H           0.7023199    -0.8425718    -2.8166311
H          -0.6626966    -0.4793542    -1.7172046
H           0.1151194    -2.0818107    -1.6864329
C           0.7376384    -0.4784005     0.5396603
H           0.3219669    -1.4640795     0.7942067
H           1.5465263    -0.2538468     1.2329452
H          -0.0507200     0.2721980     0.6648863
C           3.4138927     1.4840173     0.4554497
Cl          2.0462907     2.5590060     0.5480724
C           3.4894155     0.2926027    -0.2659610
N           4.7946309    -0.1562202    -0.1296965
C           5.3545225    -1.3697242    -0.7164679
H           6.3932014    -1.4532339    -0.3898364
H           5.2998246    -1.3222850    -1.8039598
H           4.8040514    -2.2525722    -0.3777785
C           5.4942582     0.7104777     0.6609716
H           6.5301682     0.5177211     0.9020979
C           4.6708666     1.7520305     1.0386291
H           4.9329075     2.6046782     1.6475614
O           2.9628245    -0.8277963    -2.2735143
23
289_C8H11ClN2O_1-0-12-10 (-30,) energy =    -956.3910450
C           2.5664383    -0.5112416    -1.1551974
N           1.2214876    -0.4663748    -0.8605138
C           0.3160133    -1.0313966    -1.8533252
H           0.7221127    -0.8650202    -2.8504485
H          -0.6581736    -0.5397473    -1.7610444
H           0.1782697    -2.1135046    -1.7125265
C           0.6898895    -0.4387994     0.4973683
H           0.2683621    -1.4226705     0.7518884
H           1.4778298    -0.2071964     1.2119555
H          -0.1012120     0.3123820     0.5919200
C           3.4105283     1.4330707     0.4427018
Cl          2.0435853     2.5088120     0.5379240
C           3.5079571     0.2545655    -0.3025550
N           4.8222961    -0.1758545    -0.1635058
C           5.4178977    -1.3721007    -0.7537069
H           6.4224846    -1.4818728    -0.3388165
H           5.4625814    -1.2837174    -1.8392619
H           4.8288401    -2.2582506    -0.5070055
C           5.5057167     0.6967215     0.6319177
H           6.5476816     0.5261565     0.8635887
C           4.6637656     1.7190241     1.0219179
H           4.9122177     2.5733202     1.6342163
O           2.9848898    -1.0984293    -2.1581371
23
289_C8H11ClN2O_1-0-12-10 (-15,) energy =    -956.3884742
C           2.5628195    -0.5796488    -1.0834691
N           1.2068584    -0.4217334    -0.8599728
C           0.3264668    -1.0285193    -1.8529751
H           0.7436510    -0.8830379    -2.8491844
H          -0.6532686    -0.5441643    -1.7883223
H           0.1985606    -2.1083815    -1.6880795
C           0.6361426    -0.3825014     0.4852294
H           0.1982711    -1.3612750     0.7332411
H           1.4048271    -0.1560821     1.2220139
H          -0.1490119     0.3770487     0.5534230
C           3.4134749     1.4035348     0.4756058
Cl          2.0514131     2.4828205     0.6034872
C           3.5171845     0.2488205    -0.3108660
N           4.8417010    -0.1689186    -0.1898915
C           5.4579562    -1.3498073    -0.7927412
H           6.4714058    -1.4306704    -0.3923088
H           5.4864931    -1.2596864    -1.8785378
H           4.8958465    -2.2510953    -0.5419929
C           5.5215690     0.6966691     0.6134312
H           6.5716681     0.5433334     0.8190444
C           4.6699312     1.6959152     1.0404288
H           4.9156765     2.5438857     1.6625013
O           2.9749154    -1.2934804    -2.0033857
23
289_C8H11ClN2O_1-0-12-10 (0,) energy =    -956.3845147
C           2.5659168    -0.6397368    -0.9938959
N           1.2050440    -0.3872287    -0.8663919
C           0.3621247    -1.0346765    -1.8683388
H           0.8136416    -0.9263667    -2.8547148
H          -0.6170198    -0.5451622    -1.8577502
H           0.2248271    -2.1074678    -1.6693485
C           0.5734792    -0.3245371     0.4538694
H           0.1141160    -1.2954403     0.6951648
H           1.3093393    -0.0976604     1.2231076
H          -0.2047543     0.4444936     0.4766872
C           3.4286523     1.3792986     0.5223076
Cl          2.0705489     2.4581361     0.6978089
C           3.5298063     0.2474031    -0.3029610
N           4.8665334    -0.1547809    -0.2112471
C           5.5022501    -1.3136046    -0.8389171
H           6.5419838    -1.3334206    -0.5027092
H           5.4600828    -1.2382835    -1.9250962
H           5.0046442    -2.2387426    -0.5445968
C           5.5488409     0.7050277     0.5934168
H           6.6077938     0.5709514     0.7642666
C           4.6914647     1.6794175     1.0637267
H           4.9386284     2.5207899     1.6940690
O           2.9742661    -1.4696160    -1.8116329
23
289_C8H11ClN2O_1-0-12-10 (15,) energy =    -956.3884742
C           2.5720253    -1.0005941    -0.7305802
N           1.2191637    -0.7375792    -0.6119345
C           0.3271209    -1.7243402    -1.2118363
H           0.7143411    -2.7264472    -1.0288734
H           0.2286840    -1.5868449    -2.2986023
H          -0.6615336    -1.6207545    -0.7530351
C           0.6835993     0.6225059    -0.6238610
H          -0.1167752     0.7326721     0.1145831
H           1.4661523     1.3453110    -0.3998954
H           0.2751547     0.8537095    -1.6193257
C           3.4170872     0.5920742     1.2281636
Cl          2.0340394     0.7859001     2.2702972
C           3.5269038    -0.2295942     0.0987994
N           4.8635672    -0.1548790    -0.2900908
C           5.4910482    -0.8069172    -1.4384876
H           6.5166018    -0.4358415    -1.5056008
H           4.9574446    -0.5669563    -2.3598302
H           5.4879970    -1.8900984    -1.3177451
C           5.5440400     0.6551143     0.5687762
H           6.6025196     0.8290420     0.4351134
C           4.6808898     1.1323910     1.5348436
H           4.9231447     1.7719076     2.3707560
O           2.9761595    -1.9509309    -1.4081974
23
289_C8H11ClN2O_1-0-12-10 (30,) energy =    -956.3910450
C           2.5701312    -1.0656529    -0.6704117
N           1.2333937    -0.7335145    -0.6596532
C           0.3128935    -1.7123616    -1.2251430
H           0.6823926    -2.7170184    -1.0224958
H           0.2095189    -1.5954654    -2.3138520
H          -0.6708503    -1.5773819    -0.7634405
C           0.7386783     0.6386507    -0.6684070
H          -0.0567386     0.7726708     0.0720937
H           1.5439893     1.3365568    -0.4453909
H           0.3342476     0.8812642    -1.6622838
C           3.4200749     0.5499109     1.2571600
Cl          2.0354530     0.7064205     2.3026020
C           3.5197315    -0.2229634     0.0967333
N           4.8456050    -0.1289690    -0.3098836
C           5.4482614    -0.7612460    -1.4807859
H           6.4659000    -0.3762909    -1.5789787
H           4.8840040    -0.5181528    -2.3839146
H           5.4612613    -1.8454166    -1.3683196
C           5.5336228     0.6661363     0.5594148
H           6.5850070     0.8644627     0.4054684
C           4.6829885     1.1009304     1.5560230
H           4.9315738     1.7244342     2.4021370
O           2.9717158    -2.0922326    -1.2277271
23
289_C8H11ClN2O_1-0-12-10 (45,) energy =    -956.3921682
C           2.5728587    -1.1234053    -0.5693962
N           1.2602564    -0.7445424    -0.7074949
C           0.3223339    -1.7319825    -1.2236118
H           0.7109994    -2.7304107    -1.0280401
H           0.1764756    -1.6194965    -2.3076776
H          -0.6460408    -1.6027998    -0.7274024
C           0.7886652     0.6324495    -0.7346923
H          -0.0115331     0.7885600    -0.0026928
H           1.6043287     1.3184041    -0.5117573
H           0.3960320     0.8690097    -1.7341300
C           3.4129312     0.5505239     1.2991765
Cl          2.0191410     0.6928639     2.3343435
C           3.5067817    -0.1977312     0.1257351
N           4.8260581    -0.0947664    -0.2901873
C           5.4102091    -0.7252754    -1.4698164
H           6.4495135    -0.3985988    -1.5458326
H           4.8757687    -0.4214661    -2.3746233
H           5.3572850    -1.8106011    -1.3839427
C           5.5167923     0.7014612     0.5784740
H           6.5618050     0.9195791     0.4088087
C           4.6729617     1.1163842     1.5889862
H           4.9230503     1.7394049     2.4350119
O           2.9784311    -2.2203687    -0.9655973
23
289_C8H11ClN2O_1-0-12-10 (60,) energy =    -956.3919010
C           2.5037021    -1.1067147    -0.4442779
N           1.2380626    -0.6771662    -0.7486009
C           0.2645167    -1.6540873    -1.2142582
H           0.6741251    -2.6528045    -1.0709978
H           0.0429169    -1.5072074    -2.2804666
H          -0.6696801    -1.5471095    -0.6494775
C           0.8033245     0.7097073    -0.7838950
H           0.0002898     0.8902177    -0.0592787
H           1.6356080     1.3736759    -0.5552361
H           0.4248386     0.9508826    -1.7868477
C           3.3947810     0.6047582     1.3508558
Cl          2.0081181     0.7669230     2.3933512
C           3.4494930    -0.1284359     0.1685643
N           4.7601132    -0.0483109    -0.2729422
C           5.2948867    -0.6838147    -1.4716348
H           6.3696984    -0.4953214    -1.5072884
H           4.8326317    -0.2666921    -2.3727821
H           5.1015885    -1.7564655    -1.4376359
C           5.4823653     0.7376692     0.5816487
H           6.5235318     0.9498953     0.3832775
C           4.6674654     1.1582399     1.6130288
H           4.9437317     1.7783751     2.4530046
O           2.8776409    -2.2617146    -0.6655896
23
289_C8H11ClN2O_1-0-12-10 (75,) energy =    -956.3902731
C           2.4987713    -1.1583921    -0.3700522
N           1.2905233    -0.7218654    -0.8460096
C           0.3176141    -1.7046073    -1.3012529
H           0.7560386    -2.6967811    -1.2049974
H           0.0535652    -1.5204850    -2.3507058
H          -0.5982844    -1.6439523    -0.6989479
C           0.8508807     0.6636618    -0.8701869
H           0.0377660     0.8343102    -0.1530562
H           1.6796726     1.3257743    -0.6222295
H           0.4841507     0.9141862    -1.8741385
C           3.4334084     0.5630803     1.3833505
Cl          2.0663521     0.7095046     2.4545969
C           3.4431950    -0.1348621     0.1821771
N           4.7357649    -0.0441609    -0.3053377
C           5.2252064    -0.6843536    -1.5188761
H           6.2997580    -0.5064796    -1.5932848
H           4.7356914    -0.2669820    -2.4056278
H           5.0289785    -1.7572404    -1.4739310
C           5.4892519     0.7270294     0.5384634
H           6.5201918     0.9507734     0.3028324
C           4.7117764     1.1229209     1.6072925
H           5.0145299     1.7338896     2.4448788
O           2.8520217    -2.3371001    -0.4374484
23
289_C8H11ClN2O_1-0-12-10 (90,) energy =    -956.3876610
C           2.4732498    -1.1703305    -0.2118775
N           1.3437434    -0.7322107    -0.8526131
C           0.3801565    -1.7141048    -1.3298918
H           0.8198650    -2.7058034    -1.2334612
H           0.1340726    -1.5164096    -2.3804579
H          -0.5468478    -1.6669733    -0.7426338
C           0.9259455     0.6585314    -0.9306097
H           0.0398521     0.8384373    -0.3072664
H           1.7301665     1.3103459    -0.5901468
H           0.6737179     0.9133268    -1.9679566
C           3.5009889     0.5241290     1.5142557
Cl          2.1972625     0.6256304     2.6666407
C           3.4326420    -0.1287267     0.2936272
N           4.6824997    -0.0003464    -0.2858928
C           5.0920629    -0.6272249    -1.5338203
H           6.1520759    -0.4219104    -1.6946110
H           4.5222517    -0.2264763    -2.3792332
H           4.9343836    -1.7072141    -1.4760752
C           5.4878892     0.7537118     0.5282965
H           6.4959015     1.0004044     0.2259580
C           4.7838304     1.1025482     1.6616826
H           5.1352246     1.6980442     2.4914482
O           2.7708875    -2.3606126    -0.1248970
23
289_C8H11ClN2O_1-0-12-10 (105,) energy =    -956.3854801
C           2.4197479    -1.2570558     0.0086828
N           1.4307845    -0.8013072    -0.8283221
C           0.4502001    -1.7499765    -1.3373174
H           0.7985670    -2.7587166    -1.1197042
H           0.3308492    -1.6199129    -2.4199000
H          -0.5269740    -1.5947699    -0.8600633
C           1.1424739     0.6029327    -1.0735552
H           0.1706182     0.8794004    -0.6422150
H           1.9120351     1.2293854    -0.6226480
H           1.1046049     0.8012927    -2.1527187
C           3.5695732     0.3694455     1.7196572
Cl          2.3921329     0.3351854     3.0020126
C           3.4239444    -0.2452213     0.4899120
N           4.5730770     0.0275939    -0.2291455
C           4.8904768    -0.5287233    -1.5350748
H           5.8892966    -0.1952574    -1.8228624
H           4.1744134    -0.1907374    -2.2914554
H           4.8760063    -1.6223611    -1.4965574
C           5.4083952     0.8109549     0.5303264
H           6.3619969     1.1357829     0.1387559
C           4.8111319     1.0522833     1.7484910
H           5.2048954     1.6440115     2.5618551
O           2.5476856    -2.4412304     0.3048250
23
289_C8H11ClN2O_1-0-12-10 (120,) energy =    -956.3851088
C           2.3176183    -1.2715239     0.1795997
N           1.4848320    -0.8407709    -0.8317976
C           0.4620198    -1.7575511    -1.3165405
H           0.7495685    -2.7747173    -1.0536560
H           0.3674911    -1.6616528    -2.4045606
H          -0.5145155    -1.5390513    -0.8619068
C           1.3052508     0.5542077    -1.2041316
H           0.3098563     0.9082051    -0.9007051
H           2.0534451     1.1779218    -0.7150817
H           1.3901879     0.6782702    -2.2918206
C           3.6270424     0.2363384     1.8576232
Cl          2.5787765     0.0998448     3.2378320
C           3.3966549    -0.3281375     0.6149243
N           4.4548228     0.0513091    -0.1961347
C           4.7017105    -0.4305239    -1.5469305
H           5.6506667    -0.0158869    -1.8926566
H           3.9096346    -0.1150055    -2.2322144
H           4.7674448    -1.5230542    -1.5622828
C           5.3225749     0.8304838     0.5299141
H           6.2304293     1.2055226     0.0787948
C           4.8313645     0.9799470     1.8086553
H           5.2732545     1.5476370     2.6143756
O           2.2219032    -2.3866174     0.6807918
23
289_C8H11ClN2O_1-0-12-10 (135,) energy =    -956.3847874
C           2.2455800    -1.1721440     0.2375482
N           1.5365892    -0.8354733    -0.9035686
C           0.5111636    -1.7713384    -1.3475737
H           0.8046973    -2.7818726    -1.0656388
H           0.4054732    -1.7005225    -2.4358157
H          -0.4626852    -1.5529946    -0.8860422
C           1.3427235     0.5411774    -1.3396822
H           0.3463173     0.9049578    -1.0484374
H           2.0881375     1.1945000    -0.8858487
H           1.4212381     0.6123374    -2.4318774
C           3.6728206     0.2239203     1.8953521
Cl          2.6927533     0.0600330     3.3196606
C           3.3628821    -0.2679259     0.6356359
N           4.4002709     0.1209879    -0.2051303
C           4.6150013    -0.3310923    -1.5732805
H           5.5993428     0.0146924    -1.8952864
H           3.8613787     0.0725263    -2.2543164
H           4.5910476    -1.4233636    -1.6281217
C           5.3205033     0.8361504     0.5192769
H           6.2208613     1.2047805     0.0480582
C           4.8919777     0.9370675     1.8253466
H           5.3847478     1.4548894     2.6350817
O           2.0150804    -2.1980557     0.8681115
23
289_C8H11ClN2O_1-0-12-10 (150,) energy =    -956.3834864
C           2.1576521    -1.1061711     0.3039560
N           1.5465808    -0.8735982    -0.9245414
C           0.5173306    -1.8294702    -1.3198528
H           0.8185403    -2.8312769    -1.0146528
H           0.3977366    -1.7912883    -2.4078174
H          -0.4511981    -1.6052703    -0.8499518
C           1.3294829     0.4807824    -1.4243519
H           0.3125818     0.8255782    -1.1840122
H           2.0359265     1.1743635    -0.9672689
H           1.4489479     0.5126696    -2.5140576
C           3.7209814     0.1353540     1.9439109
Cl          2.8189148    -0.0697624     3.4120349
C           3.3158981    -0.2483823     0.6689635
N           4.3423874     0.1356626    -0.1956811
C           4.4880463    -0.2099006    -1.6049332
H           5.5496158    -0.1730604    -1.8587809
H           3.9477233     0.4876150    -2.2526342
H           4.1148863    -1.2183967    -1.7883663
C           5.3275879     0.7553542     0.5265870
H           6.2224296     1.1120301     0.0358517
C           4.9678977     0.7907369     1.8571058
H           5.5272949     1.2248919     2.6727023
O           1.8174220    -2.0377800     1.0241196
23
289_C8H11ClN2O_1-0-12-10 (165,) energy =    -956.3807242
C           1.8653041     0.4010484     0.1590632
N           1.4870308    -0.8542632    -0.3297889
C           1.7690833    -1.2064197    -1.7218803
H           2.6366757    -0.6552019    -2.0866313
H           0.9146887    -0.9538019    -2.3677427
H           1.9621095    -2.2813282    -1.8167099
C           0.1918380    -1.3387986     0.1416166
H           0.1309963    -2.4149695    -0.0507764
H           0.1001794    -1.1502189     1.2112728
H          -0.6454936    -0.8386672    -0.3658057
C           3.7374272     2.1620797     0.0468191
Cl          2.7917985     3.6083388     0.1955670
C           3.2548937     0.8588731    -0.0910851
N           4.3905331     0.0441009    -0.1994131
C           4.4697438    -1.4126258    -0.1441877
H           5.4096295    -1.6896631     0.3385259
H           4.4439908    -1.8568226    -1.1447775
H           3.6371341    -1.8078781     0.4367526
C           5.5093630     0.8299062    -0.1736289
H           6.4913855     0.3819480    -0.2370081
C           5.1435336     2.1523618    -0.0398237
H           5.7980738     3.0106322    -0.0013253
O           1.1144236     1.0528103     0.8749585
23
289_C8H11ClN2O_1-0-12-10 (180,) energy =    -956.3762634
C           2.0468386     0.5536069    -0.9322002
N           1.6361573    -0.7935086    -0.9681653
C           0.6540448    -1.0924051    -2.0103074
H           0.9885602    -0.6721189    -2.9592458
H          -0.3365450    -0.6742323    -1.7822909
H           0.5696062    -2.1802632    -2.1010898
C           1.3088230    -1.4339180     0.3108606
H           1.4839302    -2.5144190     0.2573442
H           1.9166453    -1.0151058     1.1143645
H           0.2522972    -1.2685270     0.5714622
C           3.8090638     2.1835946    -0.0281878
Cl          3.0154912     3.6939411    -0.3364459
C           3.2674022     0.8985760    -0.1644448
N           4.2971932     0.0209460     0.2216088
C           4.3840572    -1.4280366     0.0571736
H           5.4373575    -1.6957854    -0.0497015
H           3.8407902    -1.7327411    -0.8366473
H           3.9741439    -1.9598979     0.9216507
C           5.3788970     0.7494995     0.6265815
H           6.2754405     0.2493181     0.9659371
C           5.1096452     2.0952380     0.5002654
H           5.7612178     2.9194277     0.7502353
O           1.5020476     1.3908209    -1.6403655
