25
203_C12H10O2S_6-11-20-18 (-165,) energy =   -1011.8647494
C           0.4627467     0.8771378    -0.4299920
H           1.0947052     1.5505143    -0.9998366
C          -0.7606224     1.2990362     0.0897788
H          -1.0875349     2.3235269    -0.0633332
C          -1.5678068     0.4028046     0.7957917
H          -2.5215013     0.7356714     1.1961326
C           0.8621009    -0.4458694    -0.2270726
C          -1.1607532    -0.9206385     0.9808319
H          -1.7975901    -1.6170563     1.5187422
C           0.0614759    -1.3555222     0.4660976
H           0.3901484    -2.3834027     0.5779528
S           2.4255139    -1.0048949    -0.9231817
O           2.3659567    -2.4745719    -1.0021559
O           2.6992238    -0.2088503    -2.1314350
C           5.7362930    -0.0594973     2.1013022
H           6.5388237     0.1404545     2.8057790
C           6.0348373    -0.3421374     0.7656677
H           7.0674988    -0.3623129     0.4292542
C           5.0092124    -0.5953975    -0.1427438
H           5.2289021    -0.7990832    -1.1858893
C           3.6825460    -0.5620813     0.2980484
C           3.3729070    -0.2912459     1.6312572
H           2.3418898    -0.2757818     1.9678597
C           4.4092588    -0.0325367     2.5311017
H           4.1754048     0.1877256     3.5688637
25
203_C12H10O2S_6-11-20-18 (-150,) energy =   -1011.8659680
C           0.5158613     0.8358732    -0.4538579
H           1.1856191     1.4616492    -1.0348765
C          -0.6923495     1.3318905     0.0342514
H          -0.9671201     2.3654766    -0.1557580
C          -1.5515957     0.4984369     0.7560095
H          -2.4933728     0.8889097     1.1317645
C           0.8494004    -0.4973497    -0.2035584
C          -1.2111644    -0.8359040     0.9881626
H          -1.8874296    -1.4841581     1.5380917
C          -0.0038790    -1.3442811     0.5055880
H           0.2741350    -2.3824789     0.6536629
S           2.3971096    -1.1520910    -0.8520105
O           2.3022810    -2.6209590    -0.7948847
O           2.6868127    -0.4714254    -2.1252635
C           5.7233472    -0.0053712     2.0800606
H           6.5290902     0.2401609     2.7662861
C           5.9762329    -0.0927006     0.7094253
H           6.9775234     0.0839438     0.3270440
C           4.9438186    -0.4021705    -0.1757312
H           5.1189034    -0.4563109    -1.2451527
C           3.6592996    -0.6211822     0.3268890
C           3.3969496    -0.5504420     1.6964585
H           2.3966585    -0.7310786     2.0767666
C           4.4358346    -0.2316628     2.5714333
H           4.2385111    -0.1635560     3.6375048
25
203_C12H10O2S_6-11-20-18 (-135,) energy =   -1011.8670465
C           0.5997480     0.8208060    -0.5298004
H           1.2993899     1.3944447    -1.1291472
C          -0.5927040     1.3852216    -0.0790487
H          -0.8241174     2.4193882    -0.3175834
C          -1.4922139     0.6192987     0.6681401
H          -2.4214432     1.0630659     1.0148227
C           0.8779934    -0.5117951    -0.2165148
C          -1.2076118    -0.7156359     0.9624499
H          -1.9152025    -1.3118887     1.5315259
C          -0.0161727    -1.2918635     0.5180696
H           0.2176902    -2.3330287     0.7141595
S           2.4101534    -1.2532549    -0.8080755
O           2.2726446    -2.7106349    -0.6485689
O           2.7284720    -0.6629700    -2.1191587
C           5.7195936     0.0463163     2.0759029
H           6.5194003     0.3335892     2.7528448
C           5.9043907     0.1478517     0.6961098
H           6.8468851     0.5115230     0.2967459
C           4.8780618    -0.2155248    -0.1773480
H           4.9956826    -0.1357259    -1.2527970
C           3.6717236    -0.6777350     0.3493230
C           3.4795335    -0.7984485     1.7277353
H           2.5397398    -1.1715781     2.1228469
C           4.5085343    -0.4247086     2.5906550
H           4.3665453    -0.5055028     3.6645808
25
203_C12H10O2S_6-11-20-18 (-120,) energy =   -1011.8678901
C           0.6419871     0.7887611    -0.5968189
H           1.3574022     1.3079023    -1.2264223
C          -0.5341396     1.4109133    -0.1805880
H          -0.7358299     2.4362931    -0.4770537
C          -1.4550352     0.7136892     0.6065456
H          -2.3714497     1.2021725     0.9261442
C           0.8825478    -0.5313958    -0.2089838
C          -1.2079564    -0.6101899     0.9754286
H          -1.9322399    -1.1537893     1.5754159
C          -0.0329578    -1.2434679     0.5668924
H           0.1707288    -2.2781578     0.8218028
S           2.3969348    -1.3458031    -0.7503811
O           2.2221067    -2.7868657    -0.5045687
O           2.7331963    -0.8326052    -2.0889292
C           5.6950794     0.0862654     2.0813754
H           6.4882972     0.4131887     2.7480407
C           5.7739047     0.3657031     0.7162843
H           6.6283346     0.9055394     0.3180607
C           4.7557878    -0.0497730    -0.1442636
H           4.7942516     0.1524744    -1.2092851
C           3.6663854    -0.7427442     0.3824189
C           3.5835973    -1.0442247     1.7442620
H           2.7399656    -1.6068639     2.1315429
C           4.6018175    -0.6180206     2.5948287
H           4.5465991    -0.8416864     3.6563943
25
203_C12H10O2S_6-11-20-18 (-105,) energy =   -1011.8685228
C           0.6054391     0.7278659    -0.7104303
H           1.3081080     1.1762423    -1.4050958
C          -0.5498523     1.4033266    -0.3188817
H          -0.7464018     2.4012043    -0.7004761
C          -1.4562674     0.7940264     0.5529372
H          -2.3563922     1.3233792     0.8531166
C           0.8393499    -0.5564089    -0.2142084
C          -1.2159685    -0.4957495     1.0316394
H          -1.9294651    -0.9725147     1.6977316
C          -0.0622361    -1.1810232     0.6486230
H           0.1329257    -2.1922906     0.9893996
S           2.3285258    -1.4382180    -0.7205802
O           2.1131760    -2.8618690    -0.4129066
O           2.6733792    -0.9838326    -2.0779352
C           5.6408931     0.0563587     2.0604482
H           6.4327155     0.4059097     2.7172546
C           5.5789958     0.5123574     0.7423646
H           6.3234417     1.2107179     0.3706493
C           4.5638197     0.0667862    -0.1057928
H           4.5039177     0.3944342    -1.1381493
C           3.6191764    -0.8342119     0.3860295
C           3.6790963    -1.3115799     1.6974790
H           2.9544926    -2.0398796     2.0468460
C           4.6946600    -0.8557332     2.5364845
H           4.7534647    -1.2192720     3.5584343
25
203_C12H10O2S_6-11-20-18 (-90,) energy =   -1011.8687518
C           0.5791097     0.6700318    -0.8795108
H           1.2386980     1.0291750    -1.6623768
C          -0.5602334     1.3854815    -0.5109011
H          -0.7873046     2.3279207    -1.0011132
C          -1.4109384     0.8868298     0.4785974
H          -2.2979394     1.4469287     0.7616022
C           0.8516045    -0.5427196    -0.2439729
C          -1.1323188    -0.3338080     1.0982677
H          -1.8036673    -0.7256741     1.8570648
C           0.0039844    -1.0583341     0.7381695
H           0.2242278    -2.0193150     1.1909007
S           2.3226698    -1.4739342    -0.7158098
O           2.0738655    -2.8851541    -0.3774555
O           2.6859093    -1.0557515    -2.0800539
C           5.6075565     0.0367845     2.0885779
H           6.3878563     0.3953932     2.7542361
C           5.3958258     0.6696220     0.8612526
H           6.0131714     1.5144176     0.5692601
C           4.3965754     0.2129494     0.0017989
H           4.2331453     0.6758296    -0.9656702
C           3.6173600    -0.8784532     0.3899021
C           3.8256576    -1.5273411     1.6082940
H           3.2261403    -2.3934781     1.8677473
C           4.8280322    -1.0616039     2.4592774
H           5.0046707    -1.5607125     3.4078271
25
203_C12H10O2S_6-11-20-18 (-75,) energy =   -1011.8684797
C           0.5213267     0.5558864    -1.0054202
H           1.1332862     0.8002994    -1.8671867
C          -0.6050154     1.3113840    -0.6765831
H          -0.8711634     2.1732230    -1.2819454
C          -1.3916230     0.9552415     0.4209961
H          -2.2680552     1.5460693     0.6726473
C           0.8433722    -0.5528395    -0.2216733
C          -1.0630319    -0.1635847     1.1912412
H          -1.6844982    -0.4460874     2.0362196
C           0.0585319    -0.9275819     0.8710566
H           0.3147172    -1.8128316     1.4438490
S           2.2917522    -1.5399861    -0.6455848
O           2.0085961    -2.9328074    -0.2614151
O           2.6713759    -1.1796559    -2.0218152
C           5.5865575    -0.0247993     2.1453052
H           6.3690499     0.3344679     2.8079986
C           5.1959648     0.7497114     1.0491554
H           5.6755241     1.7052174     0.8565827
C           4.1946965     0.2938447     0.1932620
H           3.8990146     0.8744864    -0.6745216
C           3.5917471    -0.9394607     0.4518218
C           3.9733877    -1.7233973     1.5406764
H           3.4955876    -2.6838664     1.7016851
C           4.9808210    -1.2590111     2.3881124
H           5.2930431    -1.8630630     3.2353164
25
203_C12H10O2S_6-11-20-18 (-60,) energy =   -1011.8677665
C           0.4979359     0.4959669    -1.0894271
H           1.0970457     0.6510452    -1.9805390
C          -0.6090905     1.2982504    -0.8074974
H          -0.8737334     2.1077530    -1.4818463
C          -1.3783464     1.0549744     0.3321415
H          -2.2397280     1.6813689     0.5471188
C           0.8187271    -0.5433715    -0.2153177
C          -1.0521124     0.0030489     1.1928250
H          -1.6608087    -0.1916643     2.0712079
C           0.0498159    -0.8064944     0.9207404
H           0.3041655    -1.6407692     1.5664990
S           2.2387792    -1.5922547    -0.5801898
O           1.9204431    -2.9581743    -0.1317929
O           2.6301291    -1.3165896    -1.9725920
C           5.5893623    -0.0625656     2.1388488
H           6.3892518     0.2945890     2.7816104
C           5.0006408     0.8051512     1.2140133
H           5.3426549     1.8332607     1.1365623
C           3.9758022     0.3527757     0.3850668
H           3.5212635     1.0171164    -0.3432460
C           3.5477174    -0.9724055     0.4977882
C           4.1219107    -1.8467800     1.4198169
H           3.7609443    -2.8677965     1.4819189
C           5.1534733    -1.3845692     2.2395734
H           5.6130314    -2.0578195     2.9576415
25
203_C12H10O2S_6-11-20-18 (-45,) energy =   -1011.8668177
C           0.5097542     0.4376840    -1.1409228
H           1.1156127     0.5207255    -2.0371349
C          -0.5824474     1.2781688    -0.9177235
H          -0.8294248     2.0453990    -1.6459998
C          -1.3593270     1.1263929     0.2325742
H          -2.2094300     1.7816875     0.4013742
C           0.8082716    -0.5456474    -0.1967718
C          -1.0556362     0.1290082     1.1637382
H          -1.6706000     0.0052986     2.0505668
C           0.0314457    -0.7176292     0.9514109
H           0.2687304    -1.5109874     1.6528800
S           2.2024952    -1.6492090    -0.4894615
O           1.8526965    -2.9785914     0.0386571
O           2.5983562    -1.4779332    -1.8976001
C           5.6282357    -0.0787735     2.1154065
H           6.4506016     0.2819518     2.7270205
C           4.8508746     0.8276378     1.3895855
H           5.0664787     1.8912904     1.4364461
C           3.7944820     0.3707662     0.6024769
H           3.1892430     1.0718552     0.0363167
C           3.5261698    -0.9991266     0.5548221
C           4.2873823    -1.9133566     1.2838275
H           4.0391868    -2.9685472     1.2422357
C           5.3474954    -1.4452238     2.0615044
H           5.9487603    -2.1488464     2.6302181
25
203_C12H10O2S_6-11-20-18 (-30,) energy =   -1011.8656985
C           0.5141214     0.4186753    -1.1686752
H           1.1468024     0.4488249    -2.0495493
C          -0.5544964     1.3022029    -1.0071072
H          -0.7552461     2.0498729    -1.7691083
C          -1.3679034     1.2178198     0.1250768
H          -2.2000342     1.9060846     0.2452322
C           0.7524837    -0.5386669    -0.1812355
C          -1.1242795     0.2461192     1.0998296
H          -1.7678178     0.1751080     1.9720320
C          -0.0604072    -0.6426438     0.9499598
H           0.1317473    -1.4177051     1.6847828
S           2.1109812    -1.7016181    -0.3955777
O           1.7247146    -2.9772276     0.2306851
O           2.4983897    -1.6554467    -1.8160618
C           5.6398009    -0.0970147     2.0499867
H           6.4883658     0.2668943     2.6226020
C           4.7117770     0.8074735     1.5306329
H           4.8341411     1.8736882     1.6989955
C           3.6191525     0.3468861     0.7944838
H           2.8974278     1.0496083     0.3911369
C           3.4695682    -1.0253697     0.5869404
C           4.3827634    -1.9410496     1.1153600
H           4.2259767    -3.0044805     0.9679133
C           5.4748285    -1.4684586     1.8420735
H           6.1915744    -2.1731051     2.2540975
25
203_C12H10O2S_6-11-20-18 (-15,) energy =   -1011.8646123
C           0.5349964     0.3888813    -1.1927269
H           1.1956033     0.3690614    -2.0531265
C          -0.5071457     1.3119826    -1.0953017
H          -0.6588430     2.0391113    -1.8878805
C          -1.3578418     1.2935975     0.0126570
H          -2.1694529     2.0126335     0.0825241
C           0.7096532    -0.5411530    -0.1662567
C          -1.1778225     0.3491786     1.0269630
H          -1.8500353     0.3298691     1.8799973
C          -0.1401981    -0.5787511     0.9415293
H           0.0044465    -1.3338903     1.7072229
S           2.0317045    -1.7559825    -0.2980867
O           1.6107028    -2.9672317     0.4257717
O           2.4105369    -1.8371461    -1.7193110
C           5.6536931    -0.1131410     1.9833808
H           6.5247225     0.2551528     2.5181627
C           4.6078890     0.7563672     1.6734099
H           4.6601172     1.8010822     1.9666834
C           3.4848518     0.2895170     0.9862674
H           2.6731987     0.9673217     0.7453081
C           3.4258165    -1.0537752     0.6144339
C           4.4621682    -1.9375050     0.9320747
H           4.3855291    -2.9851898     0.6593427
C           5.5794961    -1.4586853     1.6126125
H           6.3895683    -2.1385941     1.8605112
25
203_C12H10O2S_6-11-20-18 (0,) energy =   -1011.8641049
C           0.5500547     0.3163245    -1.1872455
H           1.2385666     0.2455581    -2.0227725
C          -0.4594998     1.2787857    -1.1570915
H          -0.5567368     1.9837431    -1.9777432
C          -1.3481119     1.3285739    -0.0798774
H          -2.1342568     2.0784397    -0.0622866
C           0.6548154    -0.5846783    -0.1255841
C          -1.2384009     0.4133047     0.9702086
H          -1.9394119     0.4467740     1.7992955
C          -0.2332777    -0.5539668     0.9516968
H          -0.1416627    -1.2879954     1.7454418
S           1.9353230    -1.8488157    -0.1711599
O           1.4757626    -2.9807750     0.6513271
O           2.3027229    -2.0624748    -1.5811688
C           5.6584798    -0.1562501     1.9032211
H           6.5534134     0.2214083     2.3897925
C           4.5224431     0.6473364     1.8131417
H           4.5287122     1.6512831     2.2281519
C           3.3679214     0.1678743     1.1886743
H           2.4860236     0.7950335     1.1203910
C           3.3681065    -1.1220604     0.6583191
C           4.5022570    -1.9369599     0.7435411
H           4.4860819    -2.9387911     0.3259847
C           5.6467858    -1.4477632     1.3682481
H           6.5307062    -2.0752968     1.4375442
25
203_C12H10O2S_6-11-20-18 (15,) energy =   -1011.8646123
C           0.5548057     0.2750668    -1.1369951
H           1.2703724     0.1550378    -1.9438498
C          -0.4193378     1.2723843    -1.1754829
H          -0.4602365     1.9539428    -2.0202902
C          -1.3458966     1.3870478    -0.1355175
H          -2.1047141     2.1639181    -0.1713533
C           0.5871463    -0.5951752    -0.0450167
C          -1.3088923     0.5022189     0.9448582
H          -2.0392387     0.5863927     1.7444996
C          -0.3391039    -0.5001081     0.9952535
H          -0.3031144    -1.2125141     1.8127018
S           1.8218198    -1.9048146    -0.0042105
O           1.3277901    -2.9426389     0.9171602
O           2.1639146    -2.2513055    -1.3938823
C           5.6385510    -0.1529017     1.8365445
H           6.5544727     0.2396603     2.2693423
C           4.4452551     0.5572115     1.9690457
H           4.4285420     1.5035394     2.5022904
C           3.2641294     0.0582442     1.4146367
H           2.3372103     0.6113857     1.5199884
C           3.2951226    -1.1572151     0.7306130
C           4.4883628    -1.8708898     0.5798218
H           4.4982344    -2.8006806     0.0201002
C           5.6585598    -1.3657156     1.1421888
H           6.5886469    -1.9158018     1.0313691
25
203_C12H10O2S_6-11-20-18 (30,) energy =   -1011.8656984
C           0.5883765     0.2269970    -1.1342272
H           1.3232935     0.0576505    -1.9145168
C          -0.3551609     1.2481174    -1.2401177
H          -0.3514818     1.8977405    -2.1106826
C          -1.3090867     1.4276469    -0.2343848
H          -2.0439926     2.2230313    -0.3231055
C           0.5637240    -0.6011445    -0.0096238
C          -1.3296322     0.5841189     0.8785445
H          -2.0811455     0.7184628     1.6512872
C          -0.3902225    -0.4416591     0.9968354
H          -0.3990141    -1.1242653     1.8401064
S           1.7613397    -1.9400724     0.1203408
O           1.2462821    -2.8838638     1.1273006
O           2.0798889    -2.4028301    -1.2408914
C           5.6240032    -0.1185521     1.7845364
H           6.5485827     0.2935673     2.1791094
C           4.4019140     0.4652993     2.1231333
H           4.3725115     1.3315804     2.7779791
C           3.2104032    -0.0587030     1.6195388
H           2.2603776     0.3950497     1.8821148
C           3.2597745    -1.1699000     0.7761320
C           4.4776178    -1.7528449     0.4173463
H           4.4915451    -2.5954491    -0.2660654
C           5.6607097    -1.2255516     0.9333648
H           6.6121100    -1.6742454     0.6622095
25
203_C12H10O2S_6-11-20-18 (45,) energy =   -1011.8668177
C           0.6704412     0.1533587    -1.1358930
H           1.4251514    -0.0607281    -1.8857995
C          -0.2461187     1.1887458    -1.3135280
H          -0.2005607     1.8024069    -2.2086822
C          -1.2275791     1.4290235    -0.3475909
H          -1.9414015     2.2353304    -0.4921576
C           0.5932662    -0.6272376     0.0200237
C          -1.3018086     0.6321852     0.7966299
H          -2.0743690     0.8131999     1.5385291
C          -0.3886684    -0.4066383     0.9867813
H          -0.4386919    -1.0537957     1.8561663
S           1.7608788    -1.9808759     0.2475308
O           1.2328696    -2.8268245     1.3312622
O           2.0626844    -2.5524070    -1.0756473
C           5.6421144    -0.0656219     1.7489298
H           6.5693105     0.3736549     2.1064439
C           4.4214511     0.3541107     2.2841897
H           4.3978742     1.1186293     3.0555478
C           3.2281186    -0.2061325     1.8299774
H           2.2780313     0.1165007     2.2442444
C           3.2732134    -1.1852716     0.8349477
C           4.4845382    -1.6047212     0.2840519
H           4.4834476    -2.3514594    -0.5028037
C           5.6731053    -1.0429312     0.7525237
H           6.6219882    -1.3649133     0.3330033
25
203_C12H10O2S_6-11-20-18 (60,) energy =   -1011.8677665
C           0.6950083     0.0597715    -1.1626972
H           1.4401831    -0.2243083    -1.8987190
C          -0.1921118     1.1074278    -1.4057171
H          -0.1318784     1.6601464    -2.3389155
C          -1.1626243     1.4382011    -0.4557636
H          -1.8534413     2.2538048    -0.6510264
C           0.5998278    -0.6418371     0.0413793
C          -1.2552933     0.7194180     0.7377776
H          -2.0198426     0.9699822     1.4676712
C          -0.3713859    -0.3302756     0.9936638
H          -0.4381792    -0.9180585     1.9031305
S           1.7361529    -2.0049188     0.3584809
O           1.1917076    -2.7619833     1.4979403
O           2.0260816    -2.6616853    -0.9270988
C           5.6290191    -0.0251951     1.7315087
H           6.5563606     0.4376380     2.0576117
C           4.4514835     0.1940276     2.4527428
H           4.4632061     0.8238202     3.3377328
C           3.2591134    -0.3983848     2.0411856
H           2.3429547    -0.2422218     2.6021283
C           3.2614026    -1.2054090     0.9006669
C           4.4272125    -1.4276655     0.1686129
H           4.3903494    -2.0569111    -0.7141836
C           5.6175707    -0.8353139     0.5950989
H           6.5337256    -1.0057639     0.0368084
25
203_C12H10O2S_6-11-20-18 (75,) energy =   -1011.8684796
C           0.6322634     0.0034420    -1.2062707
H           1.3398091    -0.3685426    -1.9400452
C          -0.2202226     1.0662275    -1.5026036
H          -0.1682860     1.5432519    -2.4771545
C          -1.1448224     1.5086246    -0.5526402
H          -1.8087540     2.3354942    -0.7893418
C           0.5480530    -0.6012517     0.0497806
C          -1.2265167     0.8864969     0.6950108
H          -1.9559743     1.2232931     1.4261151
C          -0.3770504    -0.1766470     1.0043304
H          -0.4385641    -0.6898498     1.9581325
S           1.6430750    -1.9803797     0.4379653
O           1.0771963    -2.6625559     1.6137201
O           1.9134985    -2.7002761    -0.8175555
C           5.5701876    -0.0168959     1.7277657
H           6.5029209     0.4488973     2.0336718
C           4.4753476    -0.0140181     2.5968502
H           4.5571403     0.4476649     3.5767492
C           3.2764660    -0.6120517     2.2121452
H           2.4266636    -0.6376170     2.8865373
C           3.1897739    -1.2059822     0.9507543
C           4.2751414    -1.2179347     0.0746030
H           4.1773877    -1.7032394    -0.8906040
C           5.4723567    -0.6204657     0.4726755
H           6.3277394    -0.6295155    -0.1969250
25
203_C12H10O2S_6-11-20-18 (90,) energy =   -1011.8687517
C           0.5478558    -0.1652572    -1.2805147
H           1.1756931    -0.6502854    -2.0204445
C          -0.2883314     0.8959043    -1.6276031
H          -0.3029754     1.2580969    -2.6516521
C          -1.1105892     1.4843583    -0.6636398
H          -1.7611689     2.3098840    -0.9389805
C           0.5489108    -0.6225412     0.0385526
C          -1.1081165     1.0093762     0.6500864
H          -1.7590441     1.4592956     1.3943527
C          -0.2760283    -0.0511240     1.0090040
H          -0.2773446    -0.4492353     2.0181644
S           1.6277292    -1.9941278     0.4953954
O           1.0450527    -2.6298233     1.6888124
O           1.9077484    -2.7580311    -0.7318543
C           5.5478476    -0.0183877     1.7876540
H           6.4791251     0.4496723     2.0946064
C           4.5448876    -0.2558036     2.7307637
H           4.6973085     0.0208624     3.7701218
C           3.3479973    -0.8581560     2.3430966
H           2.5672266    -1.0726230     3.0651254
C           3.1722872    -1.2137582     1.0045692
C           4.1705842    -0.9928697     0.0540742
H           4.0176003    -1.3100842    -0.9720329
C           5.3633292    -0.3898958     0.4537539
H           6.1505881    -0.2174227    -0.2746334
25
203_C12H10O2S_6-11-20-18 (105,) energy =   -1011.8685230
C           0.4612848    -0.2926494    -1.3155182
H           1.0119409    -0.8834743    -2.0397872
C          -0.3662186     0.7578521    -1.7143599
H          -0.4527703     1.0053460    -2.7685566
C          -1.0872151     1.4819286    -0.7623959
H          -1.7308638     2.2983502    -1.0781538
C           0.5538215    -0.6017394     0.0422002
C          -0.9931563     1.1548493     0.5930024
H          -1.5657991     1.7108397     1.3298718
C          -0.1712194     0.1059140     1.0033857
H          -0.1044650    -0.1769541     2.0487878
S           1.6146454    -1.9629377     0.5651459
O           1.0143439    -2.5548463     1.7722440
O           1.9018699    -2.7710464    -0.6316368
C           5.5519807    -0.0200239     1.8553623
H           6.4901299     0.4337121     2.1628695
C           4.6521737    -0.4780341     2.8195685
H           4.8905405    -0.3870311     3.8754933
C           3.4453491    -1.0616561     2.4303240
H           2.7373587    -1.4392507     3.1602910
C           3.1575377    -1.1756430     1.0701120
C           4.0562832    -0.7369840     0.0948517
H           3.8259667    -0.8695724    -0.9572269
C           5.2561967    -0.1514827     0.4955556
H           5.9642778     0.1932768    -0.2526302
25
203_C12H10O2S_6-11-20-18 (120,) energy =   -1011.8678899
C           0.1946254     0.9828786    -0.2219477
H           0.6289255     1.8730039    -0.6647662
C          -1.0470791     1.0176640     0.4148577
H          -1.5895379     1.9561019     0.4866312
C          -1.5933310    -0.1510082     0.9492359
H          -2.5605710    -0.1191920     1.4432047
C           0.8739694    -0.2327791    -0.3106247
C          -0.9068740    -1.3639286     0.8429516
H          -1.3410410    -2.2736208     1.2478512
C           0.3330079    -1.4118700     0.2072939
H           0.8690869    -2.3489419     0.0967389
S           2.4728593    -0.2881500    -1.1414946
O           2.5819539    -1.5865821    -1.8273034
O           2.6209996     0.9798893    -1.8748360
C           5.6309272    -0.2736752     2.1713733
H           6.3927784    -0.2659815     2.9460001
C           5.5348709    -1.3595938     1.2999809
H           6.2228105    -2.1952729     1.3917762
C           4.5556933    -1.3754415     0.3046316
H           4.4615818    -2.2059884    -0.3867375
C           3.6812429    -0.2943920     0.1994787
C           3.7777208     0.8067965     1.0541207
H           3.1041381     1.6503383     0.9402119
C           4.7539568     0.8083052     2.0485403
H           4.8358115     1.6562875     2.7224993
25
203_C12H10O2S_6-11-20-18 (135,) energy =   -1011.8670464
C           0.2304765     0.9763580    -0.2879204
H           0.6908704     1.8275251    -0.7785623
C          -1.0146058     1.0791317     0.3351814
H          -1.5340099     2.0331355     0.3471020
C          -1.5935586    -0.0424830     0.9322632
H          -2.5634362     0.0418123     1.4147749
C           0.8800940    -0.2587688    -0.2981189
C          -0.9367840    -1.2761239     0.9037591
H          -1.3967772    -2.1493749     1.3574030
C           0.3062988    -1.3919518     0.2832857
H           0.8203447    -2.3464168     0.2330632
S           2.4797006    -0.4033854    -1.1151332
O           2.5605903    -1.7387448    -1.7307502
O           2.6615937     0.8138864    -1.9235040
C           5.6693884    -0.2534124     2.1657164
H           6.4440338    -0.2095945     2.9262938
C           5.7165209    -1.2392034     1.1786644
H           6.5273042    -1.9620764     1.1675072
C           4.7208991    -1.3021962     0.2023801
H           4.7318443    -2.0655295    -0.5683245
C           3.6837783    -0.3695382     0.2307791
C           3.6332942     0.6311873     1.2041831
H           2.8266673     1.3577525     1.2063103
C           4.6285029     0.6792428     2.1790834
H           4.5938554     1.4474399     2.9463368
25
203_C12H10O2S_6-11-20-18 (150,) energy =   -1011.8659679
C           0.2518848     0.9784509    -0.3385499
H           0.7474486     1.7898364    -0.8612035
C          -0.9911976     1.1541989     0.2719025
H          -1.4742931     2.1266163     0.2401044
C          -1.6149174     0.0812009     0.9122315
H          -2.5834805     0.2224346     1.3839635
C           0.8540328    -0.2799311    -0.2916844
C          -1.0050990    -1.1762089     0.9410247
H          -1.5000987    -2.0112728     1.4284237
C           0.2359969    -1.3650661     0.3342806
H           0.7147045    -2.3389910     0.3274918
S           2.4456234    -0.5223541    -1.0995922
O           2.4875175    -1.8956345    -1.6293665
O           2.6565977     0.6297866    -1.9929286
C           5.6922566    -0.2163802     2.1164347
H           6.4830937    -0.1334851     2.8567914
C           5.8472748    -1.0693616     1.0216302
H           6.7578305    -1.6507082     0.9079808
C           4.8322348    -1.1831851     0.0719118
H           4.9284881    -1.8545968    -0.7749530
C           3.6636676    -0.4353197     0.2321489
C           3.5025745     0.4312653     1.3150340
H           2.5935872     1.0139527     1.4248623
C           4.5212171     0.5302533     2.2632080
H           4.3998990     1.1937324     3.1147707
25
203_C12H10O2S_6-11-20-18 (165,) energy =   -1011.8647495
C           0.2946130     0.9866678    -0.3664808
H           0.8356606     1.7554201    -0.9080850
C          -0.9418566     1.2460471     0.2266185
H          -1.3731807     2.2408101     0.1608361
C          -1.6263261     0.2270783     0.8933849
H          -2.5899037     0.4333926     1.3511608
C           0.8290782    -0.2998283    -0.2757886
C          -1.0841031    -1.0589646     0.9663607
H          -1.6262784    -1.8515050     1.4741274
C           0.1504022    -1.3311645     0.3774815
H           0.5787958    -2.3278077     0.4037732
S           2.4081808    -0.6527514    -1.0653099
O           2.4075473    -2.0660396    -1.4789684
O           2.6454879     0.4094411    -2.0578682
C           5.7014294    -0.1647172     2.0840346
H           6.5033855    -0.0428285     2.8067539
C           5.9359129    -0.8564293     0.8926353
H           6.9176911    -1.2731410     0.6865987
C           4.9099802    -1.0191428    -0.0359204
H           5.0767767    -1.5692343    -0.9565033
C           3.6477181    -0.4841145     0.2396104
C           3.4047239     0.2172557     1.4210160