28
181_C11H15NO_5-6-23-24 (-165,) energy =    -558.1855089
N           1.9654765    -1.6570545     0.1299732
C           2.6505168    -1.5210583     1.4048330
H           2.0811932    -0.8810802     2.0943510
H           3.6489316    -1.1092956     1.2784798
H           2.7562697    -2.5088018     1.8722146
C           2.3684726    -1.1303315    -1.0764030
C           3.6258391    -0.2346788    -1.1379719
C           3.4057298     1.1049089    -0.4040319
H           4.1539297     1.8430510    -0.7090056
H           3.4545279     1.0110354     0.6847659
H           2.4244894     1.5130631    -0.6679133
H           3.6534400     0.0046060    -2.2078867
O           1.7277420    -1.3242554    -2.1070149
C           0.7249371    -2.4191107     0.1800163
H           0.0199066    -1.9560065     0.8834536
H           0.9183297    -3.4469756     0.5152575
H           0.2895805    -2.4359187    -0.8176850
C           7.4177697    -2.2671745    -0.4688611
H           8.3686498    -2.7732512    -0.3257651
C           6.2682744    -2.9974508    -0.7738194
H           6.3189742    -4.0785125    -0.8750005
C           5.0485248    -2.3462387    -0.9569055
H           4.1685288    -2.9310283    -1.2099140
C           4.9427355    -0.9519588    -0.8286970
C           6.1107067    -0.2306234    -0.5403739
H           6.0738983     0.8508635    -0.4518649
C           7.3331681    -0.8796835    -0.3565570
H           8.2208636    -0.2953285    -0.1281427
28
181_C11H15NO_5-6-23-24 (-150,) energy =    -558.1869182
N           1.9810738    -1.6285437     0.1891808
C           2.7023795    -1.4273617     1.4347445
H           2.1453744    -0.7651989     2.1132403
H           3.6905363    -1.0087690     1.2595541
H           2.8363697    -2.3923383     1.9408456
C           2.3437480    -1.1577459    -1.0512180
C           3.5888429    -0.2516970    -1.1934020
C           3.3767406     1.1252949    -0.5363672
H           4.1260678     1.8410803    -0.8900609
H           3.4320398     1.0954183     0.5561421
H           2.3939710     1.5190996    -0.8152455
H           3.5943495    -0.0775042    -2.2758197
O           1.6835654    -1.4179900    -2.0552313
C           0.7599701    -2.4139034     0.3084410
H           0.0723580    -1.9430437     1.0236552
H           0.9873007    -3.4269706     0.6669484
H           0.2886340    -2.4710279    -0.6712253
C           7.3651080    -2.2747520    -0.4372856
H           8.3105513    -2.7833358    -0.2691318
C           6.2777346    -2.9665692    -0.9761253
H           6.3738838    -4.0180531    -1.2342977
C           5.0660782    -2.3127810    -1.1913294
H           4.2328366    -2.8578310    -1.6278413
C           4.9069421    -0.9554503    -0.8657941
C           6.0098082    -0.2702934    -0.3389849
H           5.9275382     0.7824053    -0.0866002
C           7.2261257    -0.9240285    -0.1227613
H           8.0653864    -0.3707029     0.2909351
28
181_C11H15NO_5-6-23-24 (-135,) energy =    -558.1873856
N           1.9997024    -1.5944164     0.2384172
C           2.7384858    -1.3321811     1.4619183
H           2.2022227    -0.6211710     2.1070711
H           3.7322031    -0.9448222     1.2517361
H           2.8598173    -2.2683882     2.0220137
C           2.3432161    -1.1861021    -1.0284898
C           3.5807677    -0.2806302    -1.2470413
C           3.3856611     1.1234139    -0.6479527
H           4.1632554     1.8046955    -1.0098488
H           3.4114138     1.1361695     0.4459342
H           2.4188067     1.5274118    -0.9650261
H           3.5554467    -0.1580099    -2.3353761
O           1.6718255    -1.5055560    -2.0083174
C           0.7860285    -2.3817107     0.4126095
H           0.1081285    -1.8846124     1.1192196
H           1.0270244    -3.3769204     0.8100076
H           0.2981150    -2.4843992    -0.5550356
C           7.3446817    -2.3031312    -0.4442915
H           8.2843863    -2.8167580    -0.2599988
C           6.3379790    -2.9213266    -1.1909695
H           6.4917675    -3.9194952    -1.5928178
C           5.1345725    -2.2607260    -1.4274730
H           4.3581682    -2.7436110    -2.0164623
C           4.9058804    -0.9702569    -0.9218968
C           5.9242811    -0.3596919    -0.1792098
H           5.7845293     0.6409587     0.2187648
C           7.1335031    -1.0204282     0.0580236
H           7.9098298    -0.5260327     0.6364303
28
181_C11H15NO_5-6-23-24 (-120,) energy =    -558.1866509
N           2.0076378    -1.5746425     0.3017919
C           2.7333347    -1.2315269     1.5121487
H           2.1865019    -0.4864606     2.1084269
H           3.7257156    -0.8520727     1.2872153
H           2.8565153    -2.1305999     2.1298127
C           2.3457551    -1.2375391    -0.9869996
C           3.5721955    -0.3327910    -1.2800440
C           3.3872622     1.0968196    -0.7406185
H           4.1869470     1.7475847    -1.1112223
H           3.3870553     1.1568457     0.3517092
H           2.4339832     1.5035064    -1.0938218
H           3.5154821    -0.2616337    -2.3704148
O           1.6754630    -1.6244398    -1.9434307
C           0.7955932    -2.3540087     0.5206966
H           0.1110693    -1.8130327     1.1877692
H           1.0388100    -3.3184186     0.9864381
H           0.3146180    -2.5245807    -0.4406310
C           7.3509620    -2.3188378    -0.4549049
H           8.2917861    -2.8270678    -0.2615817
C           6.4445835    -2.8410594    -1.3815604
H           6.6772864    -3.7599730    -1.9134182
C           5.2410392    -2.1850320    -1.6305270
H           4.5370044    -2.5952121    -2.3509948
C           4.9133737    -0.9942142    -0.9620049
C           5.8286758    -0.4837520    -0.0330533
H           5.6134322     0.4428754     0.4918471
C           7.0390006    -1.1376475     0.2160207
H           7.7372200    -0.7177910     0.9356527
28
181_C11H15NO_5-6-23-24 (-105,) energy =    -558.1843678
N           1.9916898    -1.5536966     0.3705271
C           2.6738762    -1.1069908     1.5709043
H           2.1040857    -0.3205337     2.0874644
H           3.6696985    -0.7401207     1.3483115
H           2.7823560    -1.9521464     2.2628818
C           2.3522179    -1.3088661    -0.9331043
C           3.5637294    -0.4037289    -1.3000450
C           3.3844612     1.0507284    -0.8239310
H           4.1743132     1.6822869    -1.2453591
H           3.4128114     1.1658318     0.2632006
H           2.4209818     1.4398809    -1.1699306
H           3.4724762    -0.3859161    -2.3889500
O           1.7038881    -1.7813043    -1.8662473
C           0.7823685    -2.3295957     0.6196604
H           0.0782550    -1.7485328     1.2303204
H           1.0253488    -3.2537863     1.1608085
H           0.3245956    -2.5766944    -0.3360833
C           7.3810463    -2.3327944    -0.5031331
H           8.3276816    -2.8321398    -0.3151316
C           6.5767848    -2.7245776    -1.5756643
H           6.8935369    -3.5342904    -2.2279041
C           5.3659328    -2.0775014    -1.8155215
H           4.7387115    -2.3930836    -2.6458752
C           4.9285848    -1.0234020    -0.9970394
C           5.7426685    -0.6480082     0.0800007
H           5.4567974     0.1840244     0.7177654
C           6.9603431    -1.2897093     0.3206865
H           7.5800563    -0.9683342     1.1539171
28
181_C11H15NO_5-6-23-24 (-90,) energy =    -558.1813188
N           1.8518460    -1.2702781    -0.6526484
C           2.0226908    -2.5001826     0.0988741
H           1.0400616    -2.8657967     0.4212294
H           2.6263038    -2.3451829     0.9862719
H           2.4936985    -3.2844283    -0.5117776
C           2.6782297    -0.1687998    -0.6468713
C           3.8138525     0.0330771     0.4000675
C           3.4104267    -0.0692078     1.8854127
H           4.1721862     0.4264667     2.4970425
H           3.3197358    -1.0911528     2.2620523
H           2.4553565     0.4376530     2.0611904
H           4.0323098     1.0892491     0.2261241
O           2.5315130     0.7271051    -1.4765381
C           0.8564195    -1.3619588    -1.7164354
H          -0.1010191    -1.6921949    -1.2960826
H           1.1660490    -2.0861285    -2.4836290
H           0.7457481    -0.3827287    -2.1775140
C           7.4353085    -2.0432328    -0.8336150
H           8.3396662    -2.5499704    -1.1595486
C           7.1691629    -0.7373608    -1.2478572
H           7.8650621    -0.2189726    -1.9023219
C           6.0085619    -0.0916364    -0.8234007
H           5.8014235     0.9204739    -1.1613931
C           5.0890437    -0.7256522     0.0273088
C           5.3660718    -2.0414415     0.4248095
H           4.6938640    -2.5670491     1.0948539
C           6.5294449    -2.6906253     0.0064352
H           6.7254079    -3.7064172     0.3403301
28
181_C11H15NO_5-6-23-24 (-75,) energy =    -558.1800960
N           1.7829084    -1.3039378    -0.6171981
C           1.7925658    -2.3985315     0.3360207
H           0.7947567    -2.5154494     0.7786767
H           2.4980400    -2.2254662     1.1411900
H           2.0525097    -3.3463208    -0.1584234
C           2.7176280    -0.3014458    -0.7627764
C           3.8271578    -0.0100858     0.2891567
C           3.4838353    -0.0998499     1.7927439
H           4.1482331     0.5730225     2.3457794
H           3.6301018    -1.0963921     2.2184640
H           2.4521862     0.2128314     1.9885215
H           3.9916339     1.0502630     0.0812810
O           2.6920780     0.4388152    -1.7431923
C           0.7956075    -1.4652881    -1.6799551
H          -0.1981860    -1.6106582    -1.2391706
H           1.0289320    -2.3404258    -2.3031090
H           0.8032222    -0.5736410    -2.3034070
C           7.5648121    -1.9494602    -0.8001719
H           8.5019032    -2.4247133    -1.0773955
C           7.3907696    -0.5771937    -0.9801743
H           8.1914228     0.0253535    -1.4011641
C           6.1852243     0.0281389    -0.6236716
H           6.0545967     1.0961216    -0.7781219
C           5.1324112    -0.7168328    -0.0748362
C           5.3199150    -2.0968649     0.0934999
H           4.5285657    -2.7099798     0.5134756
C           6.5231838    -2.7069286    -0.2623047
H           6.6449363    -3.7777608    -0.1202250
28
181_C11H15NO_5-6-23-24 (-60,) energy =    -558.1797727
N           1.7681970    -1.3362936    -0.6077497
C           1.7362360    -2.3108433     0.4677921
H           0.8386106    -2.1824841     1.0893423
H           2.6097579    -2.2363836     1.1067201
H           1.7089034    -3.3260363     0.0482381
C           2.6910602    -0.3359009    -0.8256493
C           3.8144623     0.0124183     0.1893611
C           3.5011797    -0.0097596     1.7036210
H           4.1793856     0.6843571     2.2118266
H           3.6531629    -0.9881073     2.1672213
H           2.4748862     0.3164444     1.9069342
H           3.9630461     1.0646787    -0.0685623
O           2.6442089     0.3470785    -1.8458297
C           0.7177777    -1.5249341    -1.6022610
H          -0.2644165    -1.5295157    -1.1120836
H           0.8461315    -2.4826832    -2.1252155
H           0.7709719    -0.7116663    -2.3232459
C           7.6219231    -1.8941247    -0.6931648
H           8.5799502    -2.3607545    -0.9059462
C           7.5103566    -0.5044368    -0.6428808
H           8.3820629     0.1205840    -0.8184848
C           6.2766884     0.0892634    -0.3742314
H           6.1979031     1.1734911    -0.3457823
C           5.1315744    -0.6857271    -0.1447148
C           5.2587515    -2.0813844    -0.2019310
H           4.3919718    -2.7161488    -0.0462963
C           6.4896103    -2.6797917    -0.4740436
H           6.5614269    -3.7635354    -0.5187044
28
181_C11H15NO_5-6-23-24 (-45,) energy =    -558.1805132
N           1.7619515    -1.4867663    -0.7025919
C           1.7749070    -2.3599483     0.4601288
H           1.0404042    -2.0500328     1.2178841
H           2.7584210    -2.4016813     0.9213146
H           1.5174636    -3.3766832     0.1404870
C           2.5973082    -0.4177015    -0.9529864
C           3.7389567    -0.0224315     0.0174520
C           3.4193021     0.0492322     1.5297072
H           4.1392101     0.7209276     2.0095364
H           3.4947544    -0.9129215     2.0409129
H           2.4166504     0.4570298     1.7032688
H           3.8925684     1.0138026    -0.2987679
O           2.4602912     0.2645464    -1.9651425
C           0.6446403    -1.7119116    -1.6137489
H          -0.3127183    -1.5685253    -1.0937396
H           0.6739601    -2.7370418    -2.0042617
H           0.7225934    -1.0034773    -2.4361701
C           7.5701086    -1.9719402    -0.6394635
H           8.5361750    -2.4472792    -0.7862076
C           7.4908007    -0.6027514    -0.3789668
H           8.3960243    -0.0035830    -0.3240134
C           6.2484778     0.0034163    -0.1974625
H           6.1970533     1.0725116    -0.0027475
C           5.0591991    -0.7376781    -0.2664194
C           5.1548851    -2.1105425    -0.5324809
H           4.2550752    -2.7085075    -0.6336087
C           6.3967082    -2.7211206    -0.7209311
H           6.4432532    -3.7853894    -0.9372932
28
181_C11H15NO_5-6-23-24 (-30,) energy =    -558.1817449
N           1.7853856    -1.5171412    -0.6799600
C           1.9347784    -2.3952053     0.4701778
H           1.2397170    -2.1326573     1.2809937
H           2.9516227    -2.3804164     0.8561695
H           1.7152354    -3.4240322     0.1606296
C           2.5524216    -0.4105348    -0.9813635
C           3.7270824     0.0222779    -0.0726862
C           3.3932191     0.2116061     1.4268113
H           4.1570928     0.8470222     1.8870635
H           3.3692948    -0.7216706     1.9929721
H           2.4266107     0.7141559     1.5476815
H           3.9015354     1.0303759    -0.4626559
O           2.3129210     0.2734642    -1.9730331
C           0.6162280    -1.7924376    -1.5078088
H          -0.3048401    -1.7085810    -0.9145873
H           0.6701811    -2.8092768    -1.9171381
H           0.5928061    -1.0701245    -2.3216401
C           7.5233568    -2.0409953    -0.5866965
H           8.4805387    -2.5427436    -0.6997433
C           7.4690790    -0.7150220    -0.1507659
H           8.3859293    -0.1764725     0.0747027
C           6.2396009    -0.0744292    -0.0125560
H           6.2106448     0.9618103     0.3178408
C           5.0351132    -0.7370900    -0.2992825
C           5.1061380    -2.0642429    -0.7420393
H           4.1998039    -2.5935982    -1.0171989
C           6.3378061    -2.7086577    -0.8877787
H           6.3652241    -3.7354277    -1.2435573
28
181_C11H15NO_5-6-23-24 (-15,) energy =    -558.1829945
N           1.8246062    -1.5447256    -0.6480078
C           2.0932931    -2.4165538     0.4847942
H           1.4060451    -2.2206074     1.3207799
H           3.1184205    -2.3130302     0.8334664
H           1.9543911    -3.4594013     0.1741495
C           2.5215138    -0.4046541    -0.9915922
C           3.7231659     0.0699982    -0.1442704
C           3.3658205     0.3718145     1.3316598
H           4.1493474     0.9875383     1.7844118
H           3.2623562    -0.5249533     1.9463983
H           2.4289696     0.9374482     1.3867903
H           3.9133928     1.0444794    -0.6073808
O           2.1857295     0.2763905    -1.9571313
C           0.6146641    -1.8692210    -1.3945234
H          -0.2658437    -1.8274245    -0.7385781
H           0.6842024    -2.8819202    -1.8119221
H           0.5033979    -1.1467904    -2.2010688
C           7.4790161    -2.0953046    -0.5544710
H           8.4251685    -2.6211794    -0.6491706
C           7.4292139    -0.8342270     0.0444825
H           8.3393497    -0.3700790     0.4156252
C           6.2145813    -0.1621214     0.1615861
H           6.1957795     0.8244764     0.6189145
C           5.0184641    -0.7287454    -0.3094087
C           5.0862014    -1.9899233    -0.9153582
H           4.1878334    -2.4426440    -1.3227865
C           6.3036340    -2.6657009    -1.0384231
H           6.3275041    -3.6401807    -1.5194274
28
181_C11H15NO_5-6-23-24 (0,) energy =    -558.1839555
N           1.8473832    -1.5549706    -0.6046356
C           2.2064989    -2.4104802     0.5149833
H           1.5234069    -2.2678563     1.3650408
H           3.2276418    -2.2299523     0.8426558
H           2.1401236    -3.4606550     0.2037845
C           2.4973071    -0.4049164    -0.9983629
C           3.7200781     0.1091533    -0.2060768
C           3.3460565     0.5151616     1.2389750
H           4.1265529     1.1464882     1.6742611
H           3.2073485    -0.3407650     1.9043152
H           2.4197768     1.0999779     1.2344434
H           3.9233360     1.0452638    -0.7389607
O           2.0973542     0.2569704    -1.9529017
C           0.6198782    -1.9324615    -1.2943094
H          -0.2295644    -1.9275758    -0.5975264
H           0.7126231    -2.9422265    -1.7149186
H           0.4397594    -1.2167449    -2.0944910
C           7.4229087    -2.1620048    -0.5503603
H           8.3547416    -2.7139263    -0.6385960
C           7.3624696    -0.9970788     0.2168817
H           8.2499808    -0.6337407     0.7286461
C           6.1657609    -0.2908261     0.3284730
H           6.1456205     0.6196474     0.9213912
C           4.9986293    -0.7269757    -0.3197085
C           5.0780750    -1.8943952    -1.0917643
H           4.1999180    -2.2504796    -1.6217561
C           6.2756775    -2.6042526    -1.2068126
H           6.3071412    -3.5047298    -1.8148243
28
181_C11H15NO_5-6-23-24 (15,) energy =    -558.1851037
N           1.8782987    -1.5715092    -0.5566557
C           2.3213548    -2.3911966     0.5590777
H           1.6217302    -2.3196837     1.4042739
H           3.3152890    -2.1051174     0.8939168
H           2.3668787    -3.4430898     0.2477626
C           2.4865718    -0.4288175    -1.0258768
C           3.7143296     0.1466234    -0.2848980
C           3.3424850     0.6593519     1.1235760
H           4.1050232     1.3480034     1.5001167
H           3.2287152    -0.1439561     1.8570680
H           2.4006475     1.2161306     1.0772677
H           3.9132657     1.0399780    -0.8894942
O           2.0473817     0.1756039    -2.0014169
C           0.6659829    -2.0388686    -1.2157116
H          -0.1590865    -2.1043571    -0.4938957
H           0.8223655    -3.0360970    -1.6489438
H           0.4084988    -1.3347585    -2.0050966
C           7.3562082    -2.2307755    -0.5459375
H           8.2693968    -2.8153502    -0.6173389
C           7.2489779    -1.2006965     0.3884873
H           8.0806595    -0.9763794     1.0515385
C           6.0742834    -0.4524590     0.4810656
H           6.0176954     0.3440590     1.2168067
C           4.9809659    -0.7108304    -0.3595162
C           5.1042049    -1.7515395    -1.2932369
H           4.2794712    -1.9725562    -1.9647579
C           6.2772136    -2.5010926    -1.3880652
H           6.3448528    -3.2990157    -2.1230899
28
181_C11H15NO_5-6-23-24 (30,) energy =    -558.1866483
N           1.8997864    -1.5969702    -0.4955925
C           2.3801441    -2.3519432     0.6497635
H           1.6954016    -2.2540677     1.5044742
H           3.3741836    -2.0299646     0.9505387
H           2.4418616    -3.4163333     0.3878672
C           2.4744334    -0.4673721    -1.0304272
C           3.7019280     0.1683428    -0.3375771
C           3.3450445     0.7676186     1.0363542
H           4.1209782     1.4660763     1.3661736
H           3.2214684     0.0117588     1.8178246
H           2.4107300     1.3332671     0.9601798
H           3.8910507     1.0203986    -1.0018438
O           2.0162985     0.0721087    -2.0355781
C           0.6964619    -2.1305165    -1.1195114
H          -0.1181238    -2.1906064    -0.3855290
H           0.8804848    -3.1401304    -1.5113250
H           0.4081743    -1.4701326    -1.9355770
C           7.2958911    -2.2774965    -0.5474590
H           8.1949484    -2.8845124    -0.6106837
C           7.1035329    -1.4134957     0.5293872
H           7.8535682    -1.3423190     1.3130042
C           5.9458289    -0.6351305     0.6119309
H           5.8176556     0.0269024     1.4626931
C           4.9606328    -0.7002664    -0.3826649
C           5.1669972    -1.5771768    -1.4604686
H           4.4229390    -1.6382827    -2.2505132
C           6.3206607    -2.3547670    -1.5442020
H           6.4573651    -3.0228742    -2.3906505
28
181_C11H15NO_5-6-23-24 (45,) energy =    -558.1873912
N           1.9038071    -1.6153149    -0.4271218
C           2.3971986    -2.3061762     0.7522112
H           1.7320754    -2.1485841     1.6136280
H           3.4017139    -1.9821375     1.0124221
H           2.4387435    -3.3847891     0.5525398
C           2.4655588    -0.5122607    -1.0250703
C           3.7034507     0.1686878    -0.3911322
C           3.3707968     0.8419705     0.9520365
H           4.1839556     1.5091754     1.2575870
H           3.1994199     0.1291789     1.7644922
H           2.4676300     1.4513395     0.8444634
H           3.8814786     0.9793871    -1.1063592
O           1.9930679    -0.0299221    -2.0530842
C           0.6956642    -2.1847003    -1.0094353
H          -0.1116481    -2.2067511    -0.2653130
H           0.8796570    -3.2134977    -1.3473381
H           0.3975344    -1.5705858    -1.8573564
C           7.2896840    -2.2841557    -0.5731120
H           8.1880634    -2.8923270    -0.6352525
C           6.9843750    -1.5977606     0.6006529
H           7.6452905    -1.6663253     1.4609832
C           5.8281953    -0.8154370     0.6804223
H           5.6127602    -0.2878873     1.6047411
C           4.9573017    -0.7064467    -0.4109584
C           5.2804169    -1.3990610    -1.5896751
H           4.6220851    -1.3150036    -2.4512266
C           6.4311273    -2.1799679    -1.6708922
H           6.6600166    -2.7062315    -2.5940142
28
181_C11H15NO_5-6-23-24 (60,) energy =    -558.1868304
N           1.8815698    -1.6421984    -0.3677429
C           2.3657746    -2.2705502     0.8490223
H           1.7137363    -2.0408667     1.7044617
H           3.3812975    -1.9615237     1.0798918
H           2.3746007    -3.3602528     0.7171680
C           2.4531925    -0.5828307    -1.0313193
C           3.7071023     0.1283404    -0.4585294
C           3.4015025     0.8711926     0.8542947
H           4.2480781     1.5064740     1.1369486
H           3.1886714     0.2038770     1.6948266
H           2.5291365     1.5182706     0.7162621
H           3.8723027     0.8973513    -1.2191012
O           1.9764804    -0.1555404    -2.0818859
C           0.6573691    -2.2212026    -0.9063160
H          -0.1442929    -2.1811588    -0.1567202
H           0.8186798    -3.2722339    -1.1811807
H           0.3649921    -1.6545705    -1.7884303
C           7.3289539    -2.2727335    -0.5895360
H           8.2402080    -2.8624031    -0.6415985
C           6.8831791    -1.7734016     0.6329413
H           7.4480854    -1.9683688     1.5409636
C           5.7124520    -1.0120029     0.6991909
H           5.3932282    -0.6197898     1.6606716
C           4.9624387    -0.7444488    -0.4528309
C           5.4341859    -1.2378821    -1.6802671
H           4.8721195    -1.0219644    -2.5861198
C           6.5986173    -1.9994048    -1.7492596
H           6.9415164    -2.3733133    -2.7105299
28
181_C11H15NO_5-6-23-24 (75,) energy =    -558.1847253
N           1.8355669    -1.6646504    -0.3076218
C           2.3045867    -2.2366457     0.9411282
H           1.6652773    -1.9364530     1.7844961
H           3.3298026    -1.9496049     1.1495991
H           2.2769973    -3.3318765     0.8730269
C           2.4248379    -0.6571562    -1.0339219
C           3.7043678     0.0704234    -0.5320068
C           3.4359708     0.8785386     0.7519845
H           4.3013447     1.5067533     0.9898180
H           3.2264553     0.2546721     1.6258618
H           2.5723090     1.5348919     0.6021245
H           3.8490013     0.7977995    -1.3345104
O           1.9378436    -0.2746210    -2.0971064
C           0.5856030    -2.2320090    -0.7988927
H          -0.2040900    -2.1224726    -0.0434264
H           0.7093680    -3.3017587    -1.0141803
H           0.3001172    -1.7075140    -1.7086427
C           7.3934981    -2.2340641    -0.6006839
H           8.3247313    -2.7929392    -0.6359568
C           6.8044453    -1.9252544     0.6245647
H           7.2791721    -2.2348747     1.5521184
C           5.6095104    -1.2024133     0.6702548
H           5.1934420    -0.9417215     1.6395609
C           4.9685146    -0.7903206    -0.5060760
C           5.5955398    -1.0766563    -1.7296309
H           5.1303604    -0.7355481    -2.6516870
C           6.7848837    -1.8011643    -1.7809591
H           7.2435655    -2.0163393    -2.7425600
28
181_C11H15NO_5-6-23-24 (90,) energy =    -558.1814240
N           1.8095537    -1.5979553    -0.1845804
C           2.3026171    -2.1464059     1.0658568
H           1.4481489    -2.3598341     1.7185335
H           2.9429157    -1.4403409     1.5851520
H           2.8605478    -3.0817913     0.9161252
C           2.4431524    -0.6825600    -0.9945674
C           3.7463807     0.0561244    -0.5687689
C           3.5775487     0.9751507     0.6586427
H           4.4467331     1.6366917     0.7407150
H           3.4844827     0.4438841     1.6096191
H           2.6857221     1.5999558     0.5399793
H           3.8682636     0.7227414    -1.4250655
O           1.9798873    -0.3954875    -2.0973994
C           0.6436782    -2.2911488    -0.7243672
H          -0.1728271    -2.2707480     0.0076731
H           0.8817997    -3.3408142    -0.9478210
H           0.3353658    -1.7909581    -1.6400403
C           7.4130500    -2.2940449    -0.6279458
H           8.3384604    -2.8628157    -0.6589758
C           6.6920925    -2.1858679     0.5608994
H           7.0585606    -2.6632356     1.4661847
C           5.5039885    -1.4531938     0.6033173
H           4.9915881    -1.3588203     1.5546320
C           4.9983007    -0.8243461    -0.5437293
C           5.7583009    -0.9130765    -1.7217381
H           5.4019262    -0.4090392    -2.6168707
C           6.9421596    -1.6477335    -1.7716726
H           7.5020465    -1.7041435    -2.7015428
28
181_C11H15NO_5-6-23-24 (105,) energy =    -558.1800893
N           1.7682128    -1.6001200    -0.1206900
C           2.0024220    -1.7973341     1.2978552
H           1.0908339    -1.5635338     1.8636563
H           2.7988488    -1.1608475     1.6671317
H           2.2670969    -2.8441935     1.5078366
C           2.5619828    -0.9300717    -1.0262340
C           3.7720968    -0.0448624    -0.6092864
C           3.6489035     0.8695664     0.6295915
H           4.3185211     1.7269904     0.5013758
H           3.9427904     0.3856148     1.5650336
H           2.6296953     1.2550981     0.7442672
H           3.8063395     0.6229838    -1.4736807
O           2.3252489    -0.9932824    -2.2304676
C           0.6678149    -2.4005841    -0.6478494
H          -0.2399282    -2.2101125    -0.0621773
H           0.8995338    -3.4734725    -0.5870190
H           0.5059224    -2.1301362    -1.6892512
C           7.5234320    -2.2423659    -0.7633444
H           8.4648804    -2.7832062    -0.8084731
C           6.6344976    -2.4636665     0.2896316
H           6.8811678    -3.1793246     1.0698115
C           5.4260105    -1.7688299     0.3488128
H           4.7568738    -1.9563318     1.1827947
C           5.0772330    -0.8404176    -0.6432740
C           5.9817478    -0.6281250    -1.6927463
H           5.7282446     0.0833856    -2.4744384
C           7.1920192    -1.3197417    -1.7556565
H           7.8744423    -1.1364115    -2.5815001
28
181_C11H15NO_5-6-23-24 (120,) energy =    -558.1797656
N           1.7379366    -1.6173206    -0.0564114
C           1.9654274    -1.6705419     1.3765085
H           1.1257497    -1.2157655     1.9200449
H           2.8761157    -1.1537171     1.6593640
H           2.0499170    -2.7157918     1.7066884
C           2.5378740    -1.0495726    -1.0241375
C           3.7400801    -0.1227128    -0.6932995
C           3.6333089     0.8688584     0.4888070
H           4.2942494     1.7199498     0.2919215
H           3.9512968     0.4437089     1.4446673
H           2.6139049     1.2550863     0.6003387
H           3.7432982     0.4910218    -1.5985222
O           2.3011660    -1.2336483    -2.2155922
C           0.6018611    -2.4177229    -0.5009733
H          -0.2829434    -2.1614322     0.0945539
H           0.8036907    -3.4909826    -0.3763942
H           0.4183503    -2.2119088    -1.5536750
C           7.5722097    -2.1789216    -0.7296193
H           8.5359930    -2.6807468    -0.7417581
C           6.5759598    -2.5870342     0.1585712
H           6.7606609    -3.4124791     0.8413300
C           5.3383371    -1.9430228     0.1733968
H           4.5780948    -2.2867253     0.8681172
C           5.0677238    -0.8785315    -0.6992370
C           6.0755437    -0.4861207    -1.5903473
H           5.8820438     0.3282855    -2.2844334
C           7.3162152    -1.1246106    -1.6062820
H           8.0796080    -0.8001783    -2.3086582
28
181_C11H15NO_5-6-23-24 (135,) energy =    -558.1804288
N           1.8294345    -1.7190602    -0.0131060
C           2.0966751    -1.6124822     1.4120910
H           1.4335485    -0.8847130     1.9023502
H           3.1287547    -1.3341389     1.6088229
H           1.9240256    -2.5898819     1.8783939
C           2.5039260    -1.0914465    -1.0396959
C           3.7173961    -0.1637064    -0.7787713
C           3.5993022     0.8933546     0.3456081
H           4.2956529     1.7116469     0.1328423
H           3.8540259     0.5109827     1.3365122
H           2.5894531     1.3178330     0.3865411
H           3.7144194     0.4027653    -1.7146683
O           2.1578556    -1.2464753    -2.2080230
C           0.6313288    -2.4828750    -0.3449678
H          -0.2523397    -2.0398184     0.1346521