18
345_C8H9N_0-3-14-12 (-165,) energy =    -364.9882023
C           1.5515452    -1.4161450    -1.2018239
H           2.1641456    -1.3669570    -2.0957661
H           0.4839545    -1.5077415    -1.3823883
C           1.9936853    -0.5563463    -0.0481874
H           1.2199273    -0.1341134     0.5901939
C           2.1295202    -2.0765137     0.0155179
H           1.4675178    -2.6167607     0.6872111
H           3.1325489    -2.4881184    -0.0567831
C           5.6034722     1.6679104    -0.2882037
H           6.5322408     2.2185311    -0.4034981
C           4.9933196     1.5172900     0.9586014
H           5.4410019     1.9468100     1.8512112
C           3.8060323     0.7985088     1.0410813
H           3.3073109     0.6514175     1.9953162
C           3.2444110     0.2602814    -0.1292550
N           3.8383481     0.3935070    -1.3258644
C           4.9859205     1.0809447    -1.3904436
H           5.4321690     1.1651088    -2.3806178
18
345_C8H9N_0-3-14-12 (-150,) energy =    -364.9865393
C           1.6372919    -1.5088083    -1.2022892
H           2.3458137    -1.5863301    -2.0206075
H           0.5958794    -1.6075240    -1.4959924
C           1.9742966    -0.5235011    -0.1184557
H           1.1420746    -0.0083490     0.3598171
C           2.0520653    -2.0197780     0.1509465
H           1.2992659    -2.4616373     0.7985277
H           3.0404384    -2.4614681     0.2473510
C           5.5903343     1.7025666    -0.2964668
H           6.5131176     2.2660035    -0.3979580
C           5.0498092     1.4075068     0.9563124
H           5.5463018     1.7330506     1.8669184
C           3.8672631     0.6781466     1.0187576
H           3.4211462     0.4183329     1.9748584
C           3.2433797     0.2739569    -0.1731144
N           3.7690446     0.5472620    -1.3777134
C           4.9125251     1.2435470    -1.4240681
H           5.3049156     1.4430778    -2.4204961
18
345_C8H9N_0-3-14-12 (-135,) energy =    -364.9855801
C           1.7285628    -1.6076304    -1.1784443
H           2.5256117    -1.8149364    -1.8859445
H           0.7279671    -1.7220754    -1.5858392
C           1.9701426    -0.5018131    -0.1890866
H           1.1001124     0.0906678     0.0943979
C           1.9583529    -1.9450326     0.2741022
H           1.1168816    -2.2872335     0.8707353
H           2.9095736    -2.3961367     0.5450487
C           5.5820096     1.7358044    -0.2977616
H           6.4965143     2.3150491    -0.3847458
C           5.1141594     1.2934896     0.9397017
H           5.6591485     1.5183012     1.8530090
C           3.9374903     0.5508634     0.9825210
H           3.5432298     0.1804046     1.9245097
C           3.2539675     0.2762906    -0.2117895
N           3.7064886     0.6970904    -1.4047556
C           4.8415273     1.4064699    -1.4326110
H           5.1759809     1.7269539    -2.4186348
18
345_C8H9N_0-3-14-12 (-120,) energy =    -364.9854348
C           1.8121253    -1.7031611    -1.1349956
H           2.6773904    -2.0192460    -1.7103837
H           0.8619628    -1.8496544    -1.6406817
C           1.9714433    -0.4860302    -0.2611888
H           1.0887898     0.1480313    -0.1770003
C           1.8649673    -1.8557382     0.3669724
H           0.9519023    -2.1102558     0.8983900
H           2.7643477    -2.2895464     0.7968401
C           5.5760293     1.7623282    -0.3029057
H           6.4839659     2.3536969    -0.3760990
C           5.1782388     1.1836983     0.9009973
H           5.7707493     1.3131715     1.8031503
C           4.0039835     0.4339415     0.9272960
H           3.6589971    -0.0325215     1.8452127
C           3.2605646     0.2820411    -0.2512952
N           3.6412853     0.8426650    -1.4132143
C           4.7699434     1.5598204    -1.4242811
H           5.0457941     1.9957792    -2.3838903
18
345_C8H9N_0-3-14-12 (-105,) energy =    -364.9857620
C           1.5914805    -1.5663499     0.6090441
H           1.5550161    -0.8643247     1.4372980
H           1.3454387    -2.5893384     0.8788986
C           2.6530046    -1.3469804    -0.4454605
H           3.0654405    -2.2603005    -0.8720968
C           1.2063424    -1.0592390    -0.7598806
H           0.6859064    -1.7289789    -1.4389695
H           0.8924495    -0.0215068    -0.8370110
C           5.6425316     1.6258691     0.0667554
H           6.4405300     2.3410291     0.2430850
C           4.6129752     1.8893014    -0.8336503
H           4.5858496     2.8226181    -1.3903553
C           3.6180657     0.9295263    -1.0153246
H           2.8078210     1.0955133    -1.7182363
C           3.6756931    -0.2636799    -0.2834930
N           4.6765695    -0.5247704     0.5785802
C           5.6252490     0.4020712     0.7392937
H           6.4169732     0.1534687     1.4453365
18
345_C8H9N_0-3-14-12 (-90,) energy =    -364.9862696
C           1.5188243    -1.4545149     0.5922388
H           1.4086698    -0.6491635     1.3131786
H           1.2529155    -2.4364904     0.9729112
C           2.6742898    -1.3627107    -0.3879568
H           3.1212435    -2.3205617    -0.6454268
C           1.2601209    -1.1357707    -0.8583900
H           0.8094282    -1.8976248    -1.4883787
H           0.9439688    -0.1248007    -1.1000560
C           5.6655892     1.6162624     0.0638521
H           6.4686648     2.3293250     0.2245466
C           4.5606292     1.9275225    -0.7248965
H           4.4774807     2.8974774    -1.2086560
C           3.5639552     0.9679180    -0.8963638
H           2.7021991     1.1759577    -1.5219865
C           3.6930935    -0.2744371    -0.2613567
N           4.7691635    -0.5824827     0.4885147
C           5.7186456     0.3446677     0.6384083
H           6.5718727     0.0547636     1.2508473
18
345_C8H9N_0-3-14-12 (-75,) energy =    -364.9869395
C           1.4463702    -1.3534677     0.5498509
H           1.2801671    -0.4647890     1.1526664
H           1.1428964    -2.2821586     1.0246888
C           2.6903999    -1.3772350    -0.3276048
H           3.1546832    -2.3550655    -0.4245039
C           1.3226717    -1.2183834    -0.9438142
H           0.9334047    -2.0582518    -1.5126806
H           1.0324292    -0.2507428    -1.3432351
C           5.6874620     1.6034739     0.0556995
H           6.4962234     2.3143966     0.1954180
C           4.5154953     1.9530807    -0.6120902
H           4.3842497     2.9530104    -1.0178381
C           3.5146244     0.9960567    -0.7655261
H           2.6014606     1.2404923    -1.2982558
C           3.7060979    -0.2865955    -0.2321102
N           4.8454978    -0.6297358     0.3997445
C           5.7985415     0.2970070     0.5335599
H           6.7029012    -0.0242815     1.0492933
18
345_C8H9N_0-3-14-12 (-60,) energy =    -364.9877991
C           1.3768268    -1.2641345     0.5140972
H           1.1736113    -0.3122871     0.9977873
H           1.0164030    -2.1313455     1.0602697
C           2.6971746    -1.3939222    -0.2346499
H           3.1618431    -2.3742784    -0.1848402
C           1.3904959    -1.3014540    -0.9879664
H           1.0448002    -2.2017155    -1.4885248
H           1.1626108    -0.3871185    -1.5287777
C           5.7019534     1.5922858     0.0066566
H           6.5168264     2.3036009     0.1012514
C           4.4666083     1.9630233    -0.5233978
H           4.2900032     2.9812398    -0.8606611
C           3.4609470     1.0060517    -0.6255670
H           2.4949875     1.2728431    -1.0430092
C           3.7116770    -0.3021957    -0.1822854
N           4.9078567    -0.6632596     0.3196706
C           5.8647818     0.2665545     0.4072543
H           6.8155370    -0.0707319     0.8185645
18
345_C8H9N_0-3-14-12 (-45,) energy =    -364.9885574
C           1.3065991    -1.1879876     0.4209355
H           1.0677367    -0.1973720     0.7993839
H           0.8739981    -2.0020643     0.9958529
C           2.6988278    -1.3943986    -0.1575465
H           3.1480536    -2.3672487     0.0167771
C           1.4812048    -1.3586782    -1.0593718
H           1.1731020    -2.2950905    -1.5162331
H           1.3473569    -0.4911914    -1.7002728
C           5.7057365     1.5941826    -0.0167509
H           6.5231128     2.3063939     0.0428662
C           4.4264043     1.9820906    -0.4162864
H           4.2166895     3.0154490    -0.6805990
C           3.4192639     1.0245977    -0.4765002
H           2.4168444     1.3057060    -0.7863079
C           3.7140434    -0.3045995    -0.1291231
N           4.9486458    -0.6802696     0.2522465
C           5.9065178     0.2526228     0.3033010
H           6.8895005    -0.0968045     0.6169000
18
345_C8H9N_0-3-14-12 (-30,) energy =    -364.9886690
C           1.2412188    -1.1317182     0.3405137
H           0.9635834    -0.1159349     0.6096653
H           0.7438575    -1.8961580     0.9311480
C           2.6830819    -1.3878145    -0.0578089
H           3.1082765    -2.3435449     0.2321820
C           1.5677631    -1.4293756    -1.0916969
H           1.2966091    -2.3994164    -1.4991331
H           1.5246564    -0.6160038    -1.8114877
C           5.7178330     1.5760830    -0.0621994
H           6.5440080     2.2804568    -0.0478467
C           4.4106305     1.9876461    -0.3246047
H           4.1869182     3.0329432    -0.5220081
C           3.3927375     1.0398224    -0.3280147
H           2.3683502     1.3398830    -0.5295332
C           3.7065471    -0.3056031    -0.0708016
N           4.9664799    -0.7029569     0.1847618
C           5.9337820     0.2216713     0.1852248
H           6.9373282    -0.1454621     0.3968386
18
345_C8H9N_0-3-14-12 (-15,) energy =    -364.9880211
C           1.1843594    -1.0907002     0.2487925
H           0.8515629    -0.0654184     0.3851986
H           0.6429919    -1.8093742     0.8579385
C           2.6601162    -1.3488644     0.0319210
H           3.0631845    -2.2701597     0.4410565
C           1.6597520    -1.5150229    -1.1077836
H           1.4447292    -2.5233001    -1.4506972
H           1.6844740    -0.7687434    -1.8976212
C           5.7125255     1.5945196    -0.1169903
H           6.5449599     2.2909428    -0.1481320
C           4.3923939     2.0283853    -0.2362178
H           4.1635099     3.0836810    -0.3613687
C           3.3659300     1.0902330    -0.1832444
H           2.3318149     1.4096221    -0.2691245
C           3.6851069    -0.2679469    -0.0223627
N           4.9588370    -0.6860589     0.1020080
C           5.9334541     0.2284111     0.0524292
H           6.9474394    -0.1557079     0.1578045
18
345_C8H9N_0-3-14-12 (0,) energy =    -364.9871219
C           1.1407465    -1.0534066     0.1439972
H           0.7839902    -0.0276718     0.1198483
H           0.5429900    -1.7062659     0.7741567
C           2.6282124    -1.3132455     0.1007668
H           2.9876952    -2.1870464     0.6367902
C           1.7482432    -1.6196767    -1.1065734
H           1.5730213    -2.6625940    -1.3552960
H           1.8426146    -0.9626426    -1.9669786
C           5.7113181     1.5923538    -0.1597294
H           6.5517771     2.2763070    -0.2293345
C           4.3960074     2.0520311    -0.1291554
H           4.1783694     3.1163504    -0.1689130
C           3.3590697     1.1269417    -0.0328070
H           2.3288147     1.4651184     0.0083609
C           3.6639197    -0.2413999     0.0158627
N           4.9358405    -0.6854213     0.0016706
C           5.9195634     0.2147437    -0.0851870
H           6.9314471    -0.1890672    -0.0920237
18
345_C8H9N_0-3-14-12 (15,) energy =    -364.9863961
C           1.1142840    -1.0045863     0.0251592
H           0.7799614     0.0119643    -0.1618962
H           0.4446529    -1.5733568     0.6644471
C           2.5931606    -1.2765770     0.1494938
H           2.8858974    -2.0852990     0.8148280
C           1.8293313    -1.7208332    -1.0882035
H           1.6606432    -2.7851801    -1.2253999
H           2.0097802    -1.1733055    -2.0091430
C           5.7015469     1.5968090    -0.1841619
H           6.5464096     2.2722330    -0.2799544
C           4.4038222     2.0705693    -0.0068202
H           4.2045728     3.1378515     0.0474972
C           3.3611526     1.1530415     0.1141590
H           2.3441391     1.4950466     0.2749891
C           3.6435002    -0.2174635     0.0391885
N           4.9007814    -0.6771460    -0.1149313
C           5.8898055     0.2138564    -0.2226262
H           6.8901890    -0.2004332    -0.3440870
18
345_C8H9N_0-3-14-12 (30,) energy =    -364.9858649
C           1.1148559    -0.9580688    -0.1005801
H           0.8386526     0.0354097    -0.4437488
H           0.3701630    -1.4261070     0.5373704
C           2.5696203    -1.2412444     0.1826797
H           2.7787029    -1.9611433     0.9721823
C           1.9057419    -1.8243246    -1.0475285
H           1.7159631    -2.8937504    -1.0648681
H           2.1791552    -1.4034319    -2.0110382
C           5.7013703     1.5998876    -0.2140131
H           6.5476590     2.2706006    -0.3290970
C           4.4325553     2.0754835     0.1081089
H           4.2583869     3.1377899     0.2594756
C           3.3870750     1.1628024     0.2429024
H           2.3895366     1.4979187     0.5084017
C           3.6378619    -0.2004789     0.0402475
N           4.8670978    -0.6630560    -0.2579742
C           5.8601158     0.2221897    -0.3788833
H           6.8384702    -0.1918721    -0.6208343
18
345_C8H9N_0-3-14-12 (45,) energy =    -364.9854834
C           1.1159378    -0.9321085    -0.2398504
H           0.9083663     0.0190211    -0.7236686
H           0.2997829    -1.3046541     0.3732712
C           2.5321062    -1.2025032     0.2106975
H           2.6419670    -1.8103746     1.1085136
C           1.9721087    -1.9233127    -0.9903103
H           1.7518667    -2.9826915    -0.8943805
H           2.3501805    -1.6329881    -1.9663422
C           5.6867718     1.6085074    -0.2273692
H           6.5338647     2.2760091    -0.3549782
C           4.4565159     2.0727429     0.2337968
H           4.3145538     3.1215878     0.4817856
C           3.4083190     1.1649698     0.3736853
H           2.4357071     1.4867378     0.7334506
C           3.6182818    -0.1810979     0.0448523
N           4.8071415    -0.6320068    -0.3952009
C           5.8042704     0.2492479    -0.5233689
H           6.7502006    -0.1535564    -0.8839331
18
345_C8H9N_0-3-14-12 (60,) energy =    -364.9854754
C           1.1176983    -0.9170615    -0.3906982
H           0.9856303    -0.0275641    -1.0015900
H           0.2362212    -1.2020132     0.1774591
C           2.4783832    -1.1496549     0.2300856
H           2.4723945    -1.6287531     1.2094919
C           2.0239412    -2.0033539    -0.9208543
H           1.7661838    -3.0396056    -0.7212721
H           2.5118116    -1.8404725    -1.8771817
C           5.6627541     1.6245329    -0.2416852
H           6.5113876     2.2872440    -0.3833446
C           4.4858633     2.0663125     0.3621850
H           4.3888390     3.0925625     0.7072799
C           3.4326437     1.1675436     0.5099934
H           2.4967725     1.4728993     0.9690454
C           3.5853984    -0.1508229     0.0557229
N           4.7176171    -0.5769821    -0.5295903
C           5.7209846     0.2978082    -0.6684413
H           6.6203961    -0.0849893    -1.1494612
18
345_C8H9N_0-3-14-12 (75,) energy =    -364.9861789
C           1.1554537    -0.9294024    -0.5472525
H           1.1186748    -0.1226062    -1.2746380
H           0.2108194    -1.1241369    -0.0464571
C           2.4365418    -1.1029773     0.2481052
H           2.2980376    -1.4355255     1.2769266
C           2.0836926    -2.0876123    -0.8275612
H           1.7733487    -3.0844812    -0.5272157
H           2.6836728    -2.0560877    -1.7314933
C           5.6505124     1.6297142    -0.2620802
H           6.4990303     2.2883142    -0.4219992
C           4.5398321     2.0389087     0.4775826
H           4.4960207     3.0350592     0.9105432
C           3.4827378     1.1498519     0.6424874
H           2.5956406     1.4333759     1.2020913
C           3.5671261    -0.1320450     0.0755706
N           4.6306764    -0.5229720    -0.6446882
C           5.6389328     0.3448120    -0.8017693
H           6.4818646    -0.0107145    -1.3931821
18
345_C8H9N_0-3-14-12 (90,) energy =    -364.9876108
C           1.2011793    -0.9471730    -0.7067262
H           1.2753795    -0.2354756    -1.5245827
H           0.2020044    -1.0566685    -0.2936661
C           2.3812054    -1.0415525     0.2498486
H           2.1096112    -1.2321389     1.2874040
C           2.1177497    -2.1446786    -0.7332385
H           1.7467797    -3.0905511    -0.3484086
H           2.8180737    -2.2307273    -1.5574416
C           5.6318010     1.6406962    -0.2770425
H           6.4825215     2.2925374    -0.4518162
C           4.5966892     2.0070015     0.5853879
H           4.6158211     2.9633490     1.1018109
C           3.5331364     1.1295549     0.7649396
H           2.7040390     1.3835499     1.4198879
C           3.5367500    -0.1032953     0.0910358
N           4.5247783    -0.4496966    -0.7491862
C           5.5395914     0.4078490    -0.9193870
H           6.3199000     0.0868878    -1.6083964
18
345_C8H9N_0-3-14-12 (105,) energy =    -364.9894194
C           1.2516445    -0.9918088    -0.8392361
H           1.4299506    -0.3765194    -1.7167577
H           0.2131476    -1.0428511    -0.5232828
C           2.3241138    -0.9811147     0.2441645
H           1.9451238    -1.0472879     1.2623439
C           2.1399396    -2.1889738    -0.6330123
H           1.7132500    -3.0793733    -0.1795593
H           2.9193807    -2.3707378    -1.3652973
C           5.6086327     1.6511727    -0.2929956
H           6.4626114     2.2955241    -0.4787148
C           4.6537589     1.9662062     0.6752870
H           4.7407258     2.8737696     1.2672725
C           3.5814766     1.1014821     0.8658637
H           2.8152979     1.3183272     1.6053145
C           3.4964634    -0.0691143     0.0937745
N           4.4082420    -0.3654173    -0.8470149
C           5.4316393     0.4787181    -1.0252302
H           6.1480800     0.1984057    -1.7965118
18
345_C8H9N_0-3-14-12 (120,) energy =    -364.9910750
C           1.3015796    -1.0526593    -0.9448696
H           1.5676239    -0.5308893    -1.8596652
H           0.2381084    -1.0775944    -0.7228685
C           2.2665881    -0.9101701     0.2265601
H           1.8026615    -0.8739458     1.2097764
C           2.1623343    -2.2110720    -0.5311693
H           1.6962793    -3.0503512    -0.0222345
H           3.0052139    -2.4605713    -1.1671606
C           5.6013761     1.6562488    -0.2980138
H           6.4659553     2.2857286    -0.4853738
C           4.7193695     1.9197901     0.7505123
H           4.8763993     2.7710498     1.4080693
C           3.6289020     1.0765953     0.9397541
H           2.9200479     1.2553688     1.7436254
C           3.4521296    -0.0201452     0.0809716
N           4.2963124    -0.2682433    -0.9353624
C           5.3374075     0.5529438    -1.1087780
H           5.9962302     0.3133694    -1.9426722
18
345_C8H9N_0-3-14-12 (135,) energy =    -364.9921040
C           1.3396856    -1.1247237    -1.0247738
H           1.6754271    -0.6895340    -1.9612984
H           0.2622662    -1.1522938    -0.8859292
C           2.2003249    -0.8354486     0.1972192
H           1.6673965    -0.7183806     1.1377117
C           2.1787529    -2.2142269    -0.4308016
H           1.6894010    -3.0098242     0.1244474
H           3.0746219    -2.5044316    -0.9705134
C           5.5949590     1.6575910    -0.2869952
H           6.4749639     2.2677816    -0.4659902
C           4.7752028     1.8642142     0.8223211
H           4.9993639     2.6494439     1.5398492
C           3.6606565     1.0488489     0.9973524
H           3.0006499     1.1843435     1.8496981
C           3.3950266     0.0401097     0.0583813
N           4.1829303    -0.1561552    -1.0139656
C           5.2483697     0.6351935    -1.1704986
H           5.8584020     0.4403948    -2.0518617
18
345_C8H9N_0-3-14-12 (150,) energy =    -364.9922887
C           1.3795863    -1.1965127    -1.0920175
H           1.7760878    -0.8479769    -2.0405322
H           0.2957855    -1.2399841    -1.0264276
C           2.1389192    -0.7566011     0.1469747
H           1.5480785    -0.5672235     1.0396573
C           2.1916000    -2.1990460    -0.3340092
H           1.6798403    -2.9468719     0.2657859
H           3.1293205    -2.5203413    -0.7770847
C           5.6017417     1.6500153    -0.2873590
H           6.4996777     2.2374399    -0.4529336
C           4.8367273     1.7940934     0.8698838
H           5.1246314     2.5041810     1.6409632
C           3.6954199     1.0122976     1.0246259
H           3.0778443     1.0991306     1.9143126
C           3.3446801     0.1041425     0.0137344
N           4.0836286    -0.0365125    -1.1014214
C           5.1770071     0.7197122    -1.2362207
H           5.7447223     0.5731259    -2.1544264
18
345_C8H9N_0-3-14-12 (165,) energy =    -364.9915486
C           1.4228915    -1.2582117    -1.1482845
H           1.8810277    -0.9976868    -2.0968225
H           0.3381103    -1.3217151    -1.1550237
C           2.0772554    -0.6733438     0.0850386
H           1.4268009    -0.4157609     0.9172036
C           2.1904052    -2.1615319    -0.2355491
H           1.6487284    -2.8567703     0.4003272
H           3.1628765    -2.5080828    -0.5729363
C           5.6084179     1.6464433    -0.2748705
H           6.5241343     2.2113392    -0.4203429
C           4.8896894     1.7136710     0.9189189
H           5.2342886     2.3368391     1.7402544
C           3.7230848     0.9655559     1.0450874
H           3.1413333     0.9921254     1.9623976
C           3.2963318     0.1729127    -0.0323060
N           3.9933756     0.1020270    -1.1799335
C           5.1143117     0.8227450    -1.2859610
H           5.6458672     0.7357903    -2.2329255
18
345_C8H9N_0-3-14-12 (180,) energy =    -364.9900630
C           1.4784978    -1.3393714    -1.1815318
H           2.0054182    -1.1790180    -2.1160962
H           0.3982360    -1.4216937    -1.2656275
C           2.0281563    -0.6113956     0.0203112
H           1.3181335    -0.2765781     0.7730881
C           2.1746521    -2.1273675    -0.1148178
H           1.5855285    -2.7530167     0.5504749
H           3.1701941    -2.5040267    -0.3319786
C           5.6069086     1.6478027    -0.2797493
H           6.5326468     2.2002266    -0.4090994
C           4.9388483     1.6187835     0.9453866
H           5.3354075     2.1492744     1.8073688
C           3.7572696     0.8924420     1.0485104
H           3.2148068     0.8423486     1.9887304
C           3.2610373     0.2222198    -0.0820445
N           3.9107472     0.2404861    -1.2578454
C           5.0499257     0.9374250    -1.3417093
H           5.5415139     0.9261775    -2.3138134
