16
066_C7H5N4-_4-6-13-12 (-165,) energy =    -488.7722145
C           5.4749587     1.5333860     1.4020884
H           6.1888401     2.3002637     1.6968070
C           5.8458451     0.1850397     1.3911555
H           6.8572477    -0.1017623     1.6758574
C           4.9343917    -0.7977781     1.0103300
H           5.2144866    -1.8466576     0.9957791
C           3.6185800    -0.4598234     0.6401308
C           3.2583914     0.9013823     0.6491673
H           2.2482855     1.1638049     0.3496971
C           4.1741011     1.8819951     1.0252712
H           3.8709482     2.9281049     1.0258083
N           0.9754737    -2.4341995    -0.6476187
N           1.5070406    -1.2267130    -0.4144055
C           2.6665836    -1.4877638     0.2211169
N           2.8689180    -2.8110985     0.3763915
N           1.7880560    -3.3804285    -0.1737831
16
066_C7H5N4-_4-6-13-12 (-150,) energy =    -488.7704009
C           5.4764740     1.5327224     1.3917958
H           6.1964087     2.2988294     1.6735286
C           5.8517457     0.1861693     1.3565313
H           6.8727181    -0.0994901     1.6057984
C           4.9327045    -0.7952595     0.9893735
H           5.2169774    -1.8425846     0.9535335
C           3.6041193    -0.4588369     0.6683033
C           3.2420750     0.9012025     0.6956876
H           2.2249823     1.1655515     0.4221388
C           4.1652935     1.8819172     1.0538868
H           3.8603239     2.9272881     1.0712849
N           1.0661609    -2.4560808    -0.7842205
N           1.6215492    -1.2501405    -0.5966768
C           2.6492739    -1.4839333     0.2434271
N           2.7558845    -2.7889751     0.5614477
N           1.7403961    -3.3732915    -0.0909115
16
066_C7H5N4-_4-6-13-12 (-135,) energy =    -488.7675684
C           5.4757975     1.5324504     1.3827188
H           6.1999813     2.2986263     1.6532522
C           5.8560195     0.1885515     1.3207268
H           6.8853176    -0.0946728     1.5358036
C           4.9304395    -0.7919429     0.9658993
H           5.2206722    -1.8368005     0.9082224
C           3.5912792    -0.4595187     0.6908594
C           3.2270816     0.8985631     0.7403025
H           2.2028706     1.1639743     0.4949315
C           4.1551572     1.8805056     1.0844613
H           3.8471876     2.9244146     1.1208679
N           1.1815447    -2.5120700    -0.8993136
N           1.7673596    -1.3114269    -0.7606559
C           2.6337221    -1.4833935     0.2572016
N           2.6216701    -2.7453943     0.7280331
N           1.6842244    -3.3631053    -0.0094249
16
066_C7H5N4-_4-6-13-12 (-120,) energy =    -488.7641056
C           5.4747879     1.5320178     1.3806855
H           6.2014583     2.2966016     1.6491221
C           5.8609314     0.1922015     1.2832070
H           6.8965001    -0.0892583     1.4678319
C           4.9308382    -0.7858065     0.9314430
H           5.2269411    -1.8274000     0.8468245
C           3.5842516    -0.4562528     0.6967130
C           3.2160359     0.8980967     0.7785387
H           2.1856468     1.1663077     0.5627104
C           4.1464982     1.8794841     1.1206253
H           3.8347997     2.9209055     1.1838936
N           1.3002553    -2.5871933    -0.9808315
N           1.9414492    -1.4065841    -0.9055264
C           2.6224411    -1.4800580     0.2543756
N           2.4539212    -2.6630558     0.8745288
N           1.5994884    -3.3301637     0.0770471
16
066_C7H5N4-_4-6-13-12 (-105,) energy =    -488.7608708
C           5.4749180     1.5343589     1.3914879
H           6.1983603     2.2975273     1.6724193
C           5.8740050     0.2032279     1.2451165
H           6.9147462    -0.0732525     1.4061869
C           4.9464797    -0.7729613     0.8796390
H           5.2549350    -1.8077706     0.7599207
C           3.5949525    -0.4503779     0.6719481
C           3.2139681     0.8948503     0.8073022
H           2.1767401     1.1605561     0.6222858
C           4.1391331     1.8759655     1.1669078
H           3.8176148     2.9110649     1.2705490
N           1.4046632    -2.6773148    -1.0200939
N           2.1505388    -1.5535137    -1.0268372
C           2.6292006    -1.4796284     0.2285709
N           2.2373404    -2.5131743     0.9951122
N           1.4522038    -3.2422169     0.1755283
16
066_C7H5N4-_4-6-13-12 (-90,) energy =    -488.7594384
C           5.4677752     1.5372384     1.4108794
H           6.1743914     2.3057605     1.7187747
C           5.8984795     0.2246075     1.2040451
H           6.9459063    -0.0338705     1.3508163
C           4.9898987    -0.7586651     0.8092865
H           5.3246640    -1.7798150     0.6482927
C           3.6323369    -0.4591047     0.6112857
C           3.2170079     0.8652864     0.8235896
H           2.1691125     1.1106816     0.6737408
C           4.1207828     1.8530305     1.2183849
H           3.7732360     2.8726628     1.3764757
N           1.4866918    -2.7881952    -1.0117120
N           2.3964669    -1.7932989    -1.0929947
C           2.6696619    -1.5064821     0.1917446
N           1.9782113    -2.2698753     1.0557432
N           1.2398994    -3.0691902     0.2556172
16
066_C7H5N4-_4-6-13-12 (-75,) energy =    -488.7608562
C           5.4612237     1.5383883     1.4143426
H           6.1540191     2.3145037     1.7343503
C           5.9199210     0.2440499     1.1577915
H           6.9747918     0.0058748     1.2844656
C           5.0280937    -0.7501359     0.7527404
H           5.3822093    -1.7591205     0.5592254
C           3.6627990    -0.4739956     0.5715400
C           3.2154399     0.8281264     0.8516376
H           2.1563407     1.0444982     0.7438558
C           4.1019606     1.8242172     1.2624228
H           3.7310805     2.8272017     1.4673568
N           1.5678131    -2.8960286    -0.9715014
N           2.6182974    -2.0539824    -1.0481070
C           2.7054973    -1.5354332     0.1903014
N           1.7453588    -1.9946316     1.0135142
N           1.0535161    -2.8625981     0.2476673
16
066_C7H5N4-_4-6-13-12 (-60,) energy =    -488.7640614
C           5.4615589     1.5359320     1.4083505
H           6.1555466     2.3123153     1.7250406
C           5.9249500     0.2509346     1.1133688
H           6.9847551     0.0198615     1.2090787
C           5.0325061    -0.7444642     0.7152352
H           5.3885214    -1.7468124     0.4937047
C           3.6600722    -0.4758511     0.5698486
C           3.2064235     0.8151419     0.8931169
H           2.1419796     1.0184551     0.8220825
C           4.0952477     1.8097958     1.3006966
H           3.7203417     2.8043528     1.5373406
N           1.6602632    -3.0004196    -0.9186055
N           2.7780105    -2.2516413    -0.9324423
C           2.7060858    -1.5376599     0.2072809
N           1.5785340    -1.7885384     0.8994964
N           0.9517996    -2.7298889     0.1706139
16
066_C7H5N4-_4-6-13-12 (-45,) energy =    -488.7675303
C           5.4636264     1.5359317     1.4058308
H           6.1623314     2.3101646     1.7173206
C           5.9239719     0.2576965     1.0762266
H           6.9871216     0.0304372     1.1393666
C           5.0273762    -0.7357649     0.6849858
H           5.3782806    -1.7328139     0.4345169
C           3.6494197    -0.4703779     0.5817279
C           3.1980342     0.8141693     0.9362541
H           2.1311679     1.0115954     0.8932551
C           4.0933797     1.8046014     1.3380064
H           3.7204466     2.7936995     1.5997964
N           1.7562971    -3.1036344    -0.8455024
N           2.9015560    -2.4049915    -0.7838839
C           2.6984845    -1.5269980     0.2182141
N           1.4658086    -1.6379000     0.7503655
N           0.9044132    -2.6508321     0.0703317
16
066_C7H5N4-_4-6-13-12 (-30,) energy =    -488.7703886
C           5.4679432     1.5341004     1.4053135
H           6.1720062     2.3046237     1.7138477
C           5.9226068     0.2624440     1.0426201
H           6.9876973     0.0373918     1.0747362
C           5.0209996    -0.7266793     0.6538050
H           5.3656494    -1.7179648     0.3746381
C           3.6392796    -0.4641172     0.5929865
C           3.1930768     0.8153396     0.9741145
H           2.1252454     1.0107220     0.9533812
C           4.0956304     1.8001892     1.3717680
H           3.7265288     2.7844510     1.6565652
N           1.8272383    -3.1960333    -0.7467628
N           2.9842599    -2.5314655    -0.6130316
C           2.6885838    -1.5120586     0.2177689
N           1.3903743    -1.5137940     0.5787164
N           0.8778048    -2.5913168    -0.0334080
16
066_C7H5N4-_4-6-13-12 (-15,) energy =    -488.7722135
C           5.4702089     1.5334500     1.4080268
H           6.1771513     2.3015159     1.7160682
C           5.9221905     0.2703460     1.0129906
H           6.9888572     0.0501828     1.0162465
C           5.0182101    -0.7152454     0.6218212
H           5.3605245    -1.6989596     0.3151959
C           3.6334531    -0.4605773     0.6018394
C           3.1897602     0.8124177     1.0082741
H           2.1211618     1.0043796     1.0060937
C           4.0962138     1.7939167     1.4041513
H           3.7285418     2.7720034     1.7114245
N           1.8675533    -3.2712048    -0.6321898
N           3.0292595    -2.6361228    -0.4278287
C           2.6824972    -1.4991672     0.2075855
N           1.3500082    -1.4098209     0.3889117
N           0.8645935    -2.5396321    -0.1426894
16
066_C7H5N4-_4-6-13-12 (0,) energy =    -488.7728420
C           5.4708162     1.5315188     1.4117717
H           6.1790230     2.2980153     1.7208014
C           5.9225273     0.2789220     0.9841025
H           6.9904879     0.0664838     0.9591849
C           5.0177000    -0.7037935     0.5880781
H           5.3588771    -1.6789813     0.2543520
C           3.6308869    -0.4604591     0.6089472
C           3.1872318     0.8042873     1.0407842
H           2.1180031     0.9921023     1.0565473
C           4.0954616     1.7841029     1.4361351
H           3.7278831     2.7547131     1.7664090
N           1.8771572    -3.3275688    -0.5039037
N           3.0380033    -2.7176460    -0.2316800
C           2.6799561    -1.4897762     0.1928833
N           1.3423063    -1.3255762     0.1902285
N           0.8640239    -2.4953600    -0.2530370
16
066_C7H5N4-_4-6-13-12 (15,) energy =    -488.7722135
C           5.4698700     1.5307976     1.4154391
H           6.1766931     2.2979605     1.7259948
C           5.9249371     0.2908233     0.9559253
H           6.9942410     0.0903904     0.9041998
C           5.0214509    -0.6910993     0.5545203
H           5.3662734    -1.6558559     0.1950275
C           3.6328850    -0.4649377     0.6140202
C           3.1867360     0.7896569     1.0717488
H           2.1164584     0.9690580     1.1045899
C           4.0932104     1.7713268     1.4671519
H           3.7233334     2.7329129     1.8204176
N           1.8550108    -3.3649578    -0.3708867
N           3.0099858    -2.7801528    -0.0263765
C           2.6839570    -1.4883082     0.1773646
N           1.3695409    -1.2637153    -0.0182211
N           0.8753569    -2.4588652    -0.3676522
16
066_C7H5N4-_4-6-13-12 (30,) energy =    -488.7703886
C           5.4638561     1.5324239     1.4157853
H           6.1677677     2.3029999     1.7245336
C           5.6663367     0.1986459     1.7837686
H           6.5373859    -0.0741245     2.3778795
C           4.7688971    -0.7895563     1.3831496
H           4.9212341    -1.8282143     1.6612625
C           3.6286901    -0.4676234     0.6228363
C           3.4437739     0.8762001     0.2469269
H           2.5790888     1.1215378    -0.3621683
C           4.3476006     1.8614715     0.6406253
H           4.1798250     2.8953262     0.3421092
N           1.5216127    -3.2724812     0.1383022
N           2.4809528    -2.6564808     0.8443097
C           2.7039636    -1.5092852     0.1727076
N           1.9019828    -1.3889029    -0.9033822
N           1.1789349    -2.5183618    -0.9056591
16
066_C7H5N4-_4-6-13-12 (45,) energy =    -488.7675303
C           5.4606862     1.5345438     1.4130235
H           6.1619824     2.3095166     1.7167552
C           5.6882690     0.1989743     1.7578357
H           6.5769201    -0.0711983     2.3263671
C           4.7935124    -0.7941260     1.3615054
H           4.9687290    -1.8344464     1.6203581
C           3.6300954    -0.4760392     0.6368378
C           3.4245391     0.8690645     0.2791467
H           2.5468573     1.1129979    -0.3117847
C           4.3249102     1.8608365     0.6660943
H           4.1397572     2.8961875     0.3837947
N           1.4003128    -3.1925177     0.1853063
N           2.3043868    -2.5531621     0.9451541
C           2.7128158    -1.5244887     0.1761732
N           2.0731211    -1.4894151    -1.0089590
N           1.2665883    -2.5628282    -0.9787932
16
066_C7H5N4-_4-6-13-12 (60,) energy =    -488.7640614
C           5.4605865     1.5350202     1.4097922
H           6.1612492     2.3131387     1.7069216
C           5.7121599     0.1978487     1.7286109
H           6.6183439    -0.0709882     2.2692588
C           4.8165580    -0.7984329     1.3398907
H           5.0137760    -1.8398939     1.5786118
C           3.6315070    -0.4837893     0.6517616
C           3.4046435     0.8630672     0.3178879
H           2.5113790     1.1084636    -0.2489297
C           4.3032213     1.8602304     0.6969508
H           4.1008107     2.8972750     0.4337663
N           1.2744206    -3.0966506     0.1987277
N           2.1079345    -2.4177741     1.0077992
C           2.7126722    -1.5370615     0.1877092
N           2.2613151    -1.6214605    -1.0782420
N           1.3695785    -2.6281872    -1.0394162
16
066_C7H5N4-_4-6-13-12 (75,) energy =    -488.7608566
C           5.4638887     1.5384054     1.4053137
H           6.1656671     2.3168146     1.6991031
C           5.7358126     0.1980573     1.6900168
H           6.6574693    -0.0728584     2.2025406
C           4.8363839    -0.7980964     1.3072228
H           5.0496287    -1.8417791     1.5220438
C           3.6346062    -0.4817977     0.6523916
C           3.3856499     0.8692025     0.3575669
H           2.4733738     1.1216648    -0.1754817
C           4.2843052     1.8683863     0.7329531
H           4.0651817     2.9087551     0.4981236
N           1.1635180    -2.9967307     0.1986996
N           1.9006972    -2.2318177     1.0293226
C           2.7016532    -1.5373443     0.2008732
N           2.4735011    -1.8163180    -1.0954725
N           1.5042294    -2.7531202    -1.0568987
16
066_C7H5N4-_4-6-13-12 (90,) energy =    -488.7594384
C           5.4669656     1.5365693     1.4117703
H           6.1725024     2.3050685     1.7221950
C           5.7482433     0.1871146     1.6379746
H           6.6775243    -0.1000570     2.1272668
C           4.8414830    -0.7960366     1.2387089
H           5.0598062    -1.8458986     1.4144340
C           3.6342713    -0.4594947     0.6053444
C           3.3678321     0.9015741     0.3859520
H           2.4370456     1.1755189    -0.1032782
C           4.2706137     1.8893610     0.7829135
H           4.0402546     2.9378584     0.6011664
N           1.0693029    -2.8920346     0.1964612
N           1.6849341    -1.9698827     0.9677150
C           2.6728991    -1.5066978     0.1823218
N           2.6971660    -2.0933654    -1.0270494
N           1.6663372    -2.9648373    -0.9800370
16
066_C7H5N4-_4-6-13-12 (105,) energy =    -488.7608710
C           5.4612530     1.5299463     1.4307853
H           6.1644882     2.2878089     1.7711130
C           5.7549880     0.1728225     1.5872948
H           6.6889238    -0.1303970     2.0577598
C           4.8498490    -0.7971660     1.1553510
H           5.0734541    -1.8529176     1.2807242
C           3.6396687    -0.4395093     0.5375917
C           3.3529647     0.9290432     0.4030576
H           2.4077326     1.2181482    -0.0482225
C           4.2523125     1.9032626     0.8388809
H           4.0085325     2.9575525     0.7181171
N           0.9905885    -2.7783380     0.1747101
N           1.5168611    -1.7086799     0.8051025
C           2.6595114    -1.4717246     0.1348992
N           2.8727938    -2.3571050    -0.8550916
N           1.7895206    -3.1592526    -0.8092573
16
066_C7H5N4-_4-6-13-12 (120,) energy =    -488.7641056
C           5.4543688     1.5266371     1.4384148
H           6.1518576     2.2841532     1.7910844
C           5.7690716     0.1692148     1.5483844
H           6.7133971    -0.1345972     1.9974437
C           4.8712900    -0.8009993     1.1034263
H           5.1072163    -1.8574227     1.1932355
C           3.6485479    -0.4410514     0.5098462
C           3.3375974     0.9274109     0.4252056
H           2.3789306     1.2132168     0.0015376
C           4.2295745     1.8994576     0.8784179
H           3.9681861     2.9532731     0.7955561
N           0.9309596    -2.6792207     0.0890373
N           1.4209347    -1.5357989     0.6019784
C           2.6726256    -1.4684770     0.1087645
N           2.9817057    -2.5338571    -0.6540711
N           1.8541657    -3.2684626    -0.6600922
16
066_C7H5N4-_4-6-13-12 (135,) energy =    -488.7675688
C           5.4564865     1.5272620     1.4378245
H           6.1531598     2.2869194     1.7874567
C           5.7883233     0.1714184     1.5158566
H           6.7465575    -0.1291297     1.9370142
C           4.8922345    -0.8019295     1.0758095
H           5.1401790    -1.8572212     1.1404704
C           3.6504070    -0.4455341     0.5187954
C           3.3227903     0.9215061     0.4622405
H           2.3509733     1.1994882     0.0647973
C           4.2142347     1.8945142     0.9123347
H           3.9392293     2.9465343     0.8529443
N           0.8826255    -2.5845083    -0.0374660
N           1.3675135    -1.4102827     0.3983192
C           2.6832430    -1.4718657     0.1133650
N           3.0279523    -2.6457187    -0.4503246
N           1.8690087    -3.3179387    -0.5454951
16
066_C7H5N4-_4-6-13-12 (150,) energy =    -488.7704010
C           5.4638381     1.5314644     1.4320764
H           6.1637008     2.2930385     1.7709070
C           5.8082947     0.1773422     1.4861727
H           6.7807570    -0.1199827     1.8760762
C           4.9101871    -0.7991215     1.0588717
H           5.1671570    -1.8531710     1.1029523
C           3.6485567    -0.4466512     0.5435964
C           3.3090390     0.9189527     0.5058607
H           2.3258429     1.1915092     0.1340615
C           4.2049685     1.8931558     0.9425226
H           3.9204672     2.9435545     0.8998665
N           0.8616818    -2.5051982    -0.1878514
N           1.3516693    -1.3152065     0.1891246
C           2.6890271    -1.4730910     0.1327384
N           3.0360435    -2.7190511    -0.2450727
N           1.8657975    -3.3412040    -0.4500514
16
066_C7H5N4-_4-6-13-12 (165,) energy =    -488.7722145
C           5.4674346     1.5310509     1.4224144
H           6.1709107     2.2953505     1.7473015
C           5.8235420     0.1790559     1.4545464
H           6.8104089    -0.1137169     1.8103829
C           4.9228828    -0.8012137     1.0427350
H           5.1893490    -1.8534563     1.0671806
C           3.6409860    -0.4548797     0.5743507
C           3.2914443     0.9089526     0.5521970
H           2.2978258     1.1754110     0.2049386
C           4.1926927     1.8860963     0.9699464
H           3.8994120     2.9346400     0.9417496
N           0.8707722    -2.4601495    -0.3451968
N           1.3699864    -1.2607294    -0.0178591
C           2.6872572    -1.4832782     0.1604860
N           3.0108014    -2.7767549    -0.0357821
N           1.8509779    -3.3652562    -0.3575634
16
066_C7H5N4-_4-6-13-12 (180,) energy =    -488.7728437
C           5.4688239     1.5325920     1.4115545
H           6.1770711     2.2986045     1.7216698
C           5.8339851     0.1826102     1.4216673
H           6.8339961    -0.1067972     1.7418611
C           4.9289715    -0.7997089     1.0250953
H           5.2036209    -1.8500872     1.0296701
C           3.6287056    -0.4584418     0.6057834
C           3.2720255     0.9038116     0.5995641
H           2.2695325     1.1668688     0.2762111
C           4.1799741     1.8831029     0.9969160
H           3.8803133     2.9301567     0.9833683
N           0.9080474    -2.4364728    -0.5032672
N           1.4202806    -1.2312026    -0.2226699
C           2.6776524    -1.4875688     0.1891412
N           2.9535371    -2.8065780     0.1705511
N           1.8245115    -3.3780559    -0.2682215
