25
404_C11H14_0-6-14-19 (-165,) energy =    -427.5790277
C           0.8265138    -0.4996434     1.2329556
H           1.5187316    -0.8352926     2.0020906
C          -0.3523730     0.1416586     1.6086964
H          -0.5704827     0.2963805     2.6625115
C          -1.2524830     0.5818851     0.6351955
H          -2.1731736     1.0810539     0.9253976
C           1.1454003    -0.7048008    -0.1197654
C          -0.9582882     0.3719717    -0.7111998
H          -1.6527775     0.7039763    -1.4789705
C           0.2280938    -0.2663434    -1.0828275
H           0.4330854    -0.4288052    -2.1370952
C           3.7766850    -0.7964453    -0.0350272
H           4.2546334    -1.2240841     0.8535802
H           3.6795692     0.2848148     0.1050272
C           2.4213651    -1.4421611    -0.4887321
C           2.3264931    -2.9128491    -0.0400483
H           3.2426798    -3.4623961    -0.2879523
H           1.4863227    -3.4145257    -0.5344472
H           2.1724938    -2.9893806     1.0422787
C           2.9394435    -1.3541660    -1.9613472
H           2.5827355    -0.4562215    -2.4750657
H           2.7515409    -2.2220487    -2.6030172
C           4.3795324    -1.1529274    -1.4183611
H           4.9867636    -0.3844659    -1.9059965
H           4.9563254    -2.0827828    -1.3982766
25
404_C11H14_0-6-14-19 (-150,) energy =    -427.5799522
C           0.9261752    -0.3305452     1.2108978
H           1.6868070    -0.5326743     1.9619174
C          -0.2532737     0.3138973     1.5836331
H          -0.4031212     0.6080016     2.6195201
C          -1.2374268     0.5826898     0.6300150
H          -2.1562045     1.0868405     0.9177017
C           1.1521687    -0.7150392    -0.1192356
C          -1.0295345     0.1999058    -0.6954409
H          -1.7885396     0.4034517    -1.4467611
C           0.1539514    -0.4432261    -1.0640043
H           0.3020344    -0.7367029    -2.1003542
C           3.7735457    -0.8898864     0.0508992
H           4.2202050    -1.4134698     0.9036972
H           3.6961465     0.1744686     0.2949151
C           2.4200648    -1.4572432    -0.4979288
C           2.2652584    -2.9540909    -0.1709867
H           3.1722409    -3.5136624    -0.4312201
H           1.4268517    -3.3887234    -0.7279414
H           2.0709773    -3.1024413     0.8977191
C           2.9840948    -1.2481995    -1.9425817
H           2.6441282    -0.3044020    -2.3807588
H           2.8070374    -2.0533981    -2.6643882
C           4.4095425    -1.1220130    -1.3440868
H           5.0412321    -0.3205780    -1.7386496
H           4.9722527    -2.0592290    -1.3980807
25
404_C11H14_0-6-14-19 (-135,) energy =    -427.5799630
C           0.9951066    -0.1625512     1.1718399
H           1.8080725    -0.2352055     1.8900481
C          -0.1847747     0.4897319     1.5357753
H          -0.2780025     0.9199484     2.5298763
C          -1.2384899     0.5937190     0.6272418
H          -2.1557457     1.1049324     0.9072087
C           1.1459209    -0.7252935    -0.1023308
C          -1.1025347     0.0381026    -0.6466820
H          -1.9155062     0.1154924    -1.3643917
C           0.0773407    -0.6141323    -1.0044655
H           0.1733988    -1.0394138    -2.0011166
C           3.7612968    -0.9804065     0.1273984
H           4.1757848    -1.5855158     0.9415761
H           3.7052454     0.0612166     0.4591414
C           2.4103206    -1.4652843    -0.4981924
C           2.2144508    -2.9800080    -0.3066119
H           3.1154164    -3.5368990    -0.5922326
H           1.3818851    -3.3467522    -0.9184195
H           1.9892540    -3.2133252     0.7407284
C           3.0158098    -1.1370247    -1.9064028
H           2.7009651    -0.1500087    -2.2598931
H           2.8396035    -1.8675940    -2.7040786
C           4.4273892    -1.1026788    -1.2673135
H           5.0895610    -0.2869474    -1.5724973
H           4.9669792    -2.0466768    -1.3928008
25
404_C11H14_0-6-14-19 (-120,) energy =    -427.5791590
C           1.0754607    -0.0258012     1.1005198
H           1.9281731     0.0190789     1.7719559
C          -0.1037305     0.6360497     1.4534366
H          -0.1491963     1.1912438     2.3870951
C          -1.2149402     0.5899487     0.6128845
H          -2.1307282     1.1084734     0.8840394
C           1.1663449    -0.7551811    -0.0913681
C          -1.1382499    -0.1272695    -0.5835464
H          -1.9955566    -0.1678424    -1.2509356
C           0.0383219    -0.7902623    -0.9278460
H           0.0861897    -1.3388967    -1.8660476
C           3.7816228    -1.0788208     0.1763488
H           4.1616992    -1.7495326     0.9550732
H           3.7506572    -0.0609959     0.5766774
C           2.4335120    -1.4819223    -0.5103177
C           2.2204266    -3.0050086    -0.4539035
H           3.1219449    -3.5444705    -0.7685508
H           1.3984196    -3.3147571    -1.1094513
H           1.9737292    -3.3235522     0.5657596
C           3.0771257    -1.0368760    -1.8716577
H           2.7976239    -0.0097533    -2.1264377
H           2.8905852    -1.6771873    -2.7414988
C           4.4751511    -1.1108160    -1.2096632
H           5.1748151    -0.2997203    -1.4324962
H           4.9799764    -2.0622029    -1.4043675
25
404_C11H14_0-6-14-19 (-105,) energy =    -427.5776971
C           1.1194463     0.1114494     1.0121649
H           2.0052715     0.2669855     1.6197002
C          -0.0548939     0.7884621     1.3526095
H          -0.0567268     1.4611740     2.2067153
C          -1.2156200     0.6071039     0.6031910
H          -2.1281095     1.1361581     0.8649161
C           1.1603345    -0.7743828    -0.0723923
C          -1.1907118    -0.2608228    -0.4907856
H          -2.0855554    -0.4092060    -1.0902023
C          -0.0188694    -0.9388192    -0.8208767
H          -0.0187967    -1.6003570    -1.6835101
C           3.7737610    -1.1762847     0.2331218
H           4.1182266    -1.9199901     0.9603357
H           3.7690759    -0.1956118     0.7162052
C           2.4307907    -1.4912901    -0.5104291
C           2.2118917    -3.0126612    -0.5839275
H           3.1241688    -3.5265446    -0.9087253
H           1.4166575    -3.2758496    -1.2897475
H           1.9327170    -3.4099930     0.3990095
C           3.1152013    -0.9401986    -1.8142768
H           2.8642694     0.1126444    -1.9765121
H           2.9276393    -1.4924766    -2.7424738
C           4.4965557    -1.1087580    -1.1367697
H           5.2206243    -0.3001921    -1.2748200
H           4.9818611    -2.0525234    -1.4040752
25
404_C11H14_0-6-14-19 (-90,) energy =    -427.5762377
C           1.1656930     0.2488641     0.8738685
H           2.0887461     0.5190946     1.3756193
C          -0.0004054     0.9359520     1.2179077
H           0.0437183     1.7198623     1.9699756
C          -1.2117978     0.6215888     0.6043960
H          -2.1199059     1.1559599     0.8704669
C           1.1571685    -0.7788697    -0.0811015
C          -1.2408233    -0.3887347    -0.3576712
H          -2.1746681    -0.6463528    -0.8512995
C          -0.0742003    -1.0750869    -0.6927671
H          -0.1289608    -1.8508728    -1.4502395
C           3.7532855    -1.2862096     0.2890331
H           4.0470496    -2.1080886     0.9513495
H           3.7659817    -0.3603475     0.8684501
C           2.4288454    -1.4968080    -0.5247560
C           2.1981216    -3.0034375    -0.7373048
H           3.1339758    -3.5031527    -1.0116204
H           1.4800305    -3.2045679    -1.5390556
H           1.8225839    -3.4726328     0.1795170
C           3.1759825    -0.8598048    -1.7539587
H           2.9551016     0.2086855    -1.8399030
H           3.0082204    -1.3318546    -2.7289913
C           4.5278391    -1.1155009    -1.0439500
H           5.2691384    -0.3117608    -1.0838907
H           5.0088933    -2.0408153    -1.3753629
25
404_C11H14_0-6-14-19 (-75,) energy =    -427.5761988
C           1.1971040     0.3799349     0.6814017
H           2.1559865     0.7613445     1.0182984
C           0.0428597     1.0679866     1.0554135
H           0.1265211     1.9553967     1.6779344
C          -1.2108947     0.6204433     0.6383546
H          -2.1120782     1.1529915     0.9303606
C           1.1412150    -0.7735727    -0.1189770
C          -1.2900244    -0.5212474    -0.1576266
H          -2.2575099    -0.8869324    -0.4927559
C          -0.1313529    -1.2066444    -0.5270723
H          -0.2315758    -2.0942802    -1.1423381
C           3.6947012    -1.3875339     0.3421770
H           3.9388108    -2.2804971     0.9282517
H           3.6809824    -0.5325386     1.0217073
C           2.4123032    -1.4970849    -0.5559480
C           2.1652035    -2.9717234    -0.9135252
H           3.1113384    -3.4706360    -1.1506080
H           1.5188904    -3.0801173    -1.7914060
H           1.7025957    -3.5106416    -0.0783526
C           3.2369201    -0.7926895    -1.6963175
H           3.0288665     0.2810494    -1.7367836
H           3.1242107    -1.2086264    -2.7039958
C           4.5448603    -1.1041431    -0.9249338
H           5.2795544    -0.2965131    -0.8525234
H           5.0555097    -1.9958374    -1.3012672
25
404_C11H14_0-6-14-19 (-60,) energy =    -427.5771900
C           1.1884582     0.4687382     0.4928363
H           2.1579034     0.9250165     0.6752232
C           0.0434756     1.1531650     0.8954908
H           0.1393373     2.1177471     1.3877941
C          -1.2200525     0.6030506     0.6707947
H          -2.1152445     1.1329156     0.9852479
C           1.1142855    -0.7807212    -0.1483429
C          -1.3166306    -0.6348877     0.0387123
H          -2.2917168    -1.0797690    -0.1437903
C          -0.1646740    -1.3161580    -0.3627655
H          -0.2765139    -2.2799761    -0.8474277
C           3.6118498    -1.4670366     0.3995485
H           3.8185554    -2.4072039     0.9231008
H           3.5369824    -0.6722458     1.1462072
C           2.3883884    -1.4948830    -0.5860330
C           2.1435986    -2.9288361    -1.0740818
H           3.0919695    -3.4043645    -1.3474590
H           1.5014521    -2.9524288    -1.9621379
H           1.6769923    -3.5441379    -0.2956224
C           3.2901767    -0.7193044    -1.6161237
H           3.0851698     0.3554815    -1.6071878
H           3.2476163    -1.0714802    -2.6529700
C           4.5442320    -1.0839937    -0.7799667
H           5.2641670    -0.2804645    -0.5965980
H           5.0895371    -1.9420193    -1.1850465
25
404_C11H14_0-6-14-19 (-45,) energy =    -427.5773462
C           1.1715347     0.5490198     0.3009801
H           2.1293951     1.0613706     0.3411423
C           0.0333157     1.2272399     0.7316685
H           0.1208216     2.2492202     1.0920114
C          -1.2136184     0.5992870     0.6997349
H          -2.1036334     1.1257980     1.0338599
C           1.1073626    -0.7738551    -0.1724880
C          -1.3003146    -0.7106490     0.2333855
H          -2.2624112    -1.2159100     0.2004089
C          -0.1547844    -1.3854223    -0.1970158
H          -0.2587032    -2.4032159    -0.5572195
C           3.5419793    -1.5537500     0.4286474
H           3.6973550    -2.5270162     0.9079448
H           3.4282786    -0.7985117     1.2118177
C           2.3762680    -1.4860812    -0.6273634
C           2.1186995    -2.8739818    -1.2260134
H           3.0614949    -3.3292700    -1.5486563
H           1.4618490    -2.8188405    -2.1022227
H           1.6622023    -3.5524214    -0.4958777
C           3.3586128    -0.6720341    -1.5475799
H           3.1841749     0.4060473    -1.4973549
H           3.3717218    -0.9664025    -2.6031472
C           4.5516744    -1.1204889    -0.6646741
H           5.2756414    -0.3480891    -0.3872619
H           5.1028176    -1.9637885    -1.0922383
25
404_C11H14_0-6-14-19 (-30,) energy =    -427.5764171
C           1.1388613     0.6258140     0.1059733
H           2.0566266     1.1945948    -0.0088534
C           0.0020835     1.2892012     0.5665437
H           0.0546370     2.3525914     0.7867163
C          -1.1965226     0.5961975     0.7401574
H          -2.0844201     1.1118314     1.0961447
C           1.1208327    -0.7473292    -0.1932591
C          -1.2378257    -0.7661621     0.4486413
H          -2.1620176    -1.3245682     0.5756813
C          -0.0963377    -1.4244569    -0.0132167
H          -0.1668698    -2.4833896    -0.2371066
C           3.4889928    -1.6685355     0.4360075
H           3.5654075    -2.6725281     0.8690559
H           3.3780111    -0.9459628     1.2503094
C           2.3804353    -1.4679204    -0.6661437
C           2.0878445    -2.7950222    -1.3798612
H           3.0174538    -3.2409854    -1.7503947
H           1.4224890    -2.6475174    -2.2387546
H           1.6258737    -3.5288420    -0.7100587
C           3.4480255    -0.6504576    -1.4796453
H           3.3493852     0.4307304    -1.3605491
H           3.4909604    -0.8682986    -2.5527694
C           4.5705730    -1.2367929    -0.5851660
H           5.3345398    -0.5377756    -0.2313389
H           5.0780379    -2.0888964    -1.0479492
25
404_C11H14_0-6-14-19 (-15,) energy =    -427.5760966
C           1.0555937     0.6822292    -0.1182662
H           1.8956986     1.2988782    -0.4197819
C          -0.0934505     1.3168985     0.3576392
H          -0.1200730     2.4022716     0.4153813
C          -1.1996000     0.5677114     0.7554545
H          -2.0947692     1.0597768     1.1263316
C           1.1340985    -0.7151150    -0.2219780
C          -1.1396871    -0.8235777     0.6711179
H          -1.9902595    -1.4265397     0.9794432
C           0.0091070    -1.4513451     0.1902198
H           0.0240280    -2.5355005     0.1419915
C           3.4421628    -1.7671947     0.4553005
H           3.4406117    -2.7978330     0.8282642
H           3.3374870    -1.0866722     1.3060816
C           2.4049291    -1.4281700    -0.6768199
C           2.0958888    -2.6761079    -1.5236572
H           3.0225378    -3.1367869    -1.8839248
H           1.4889069    -2.4141711    -2.3981469
H           1.5586204    -3.4420119    -0.9547152
C           3.5430689    -0.6059757    -1.3747415
H           3.5148146     0.4619770    -1.1473509
H           3.6197141    -0.7213148    -2.4614870
C           4.5897376    -1.3379635    -0.4929227
H           5.3860515    -0.7240512    -0.0614820
H           5.0531777    -2.1874117    -1.0039707
25
404_C11H14_0-6-14-19 (0,) energy =    -427.5774227
C           0.9647617     0.6874107    -0.3120146
H           1.7337454     1.3017930    -0.7692250
C          -0.1952514     1.3076413     0.1597993
H          -0.3006688     2.3859142     0.0690217
C          -1.2094238     0.5527881     0.7458965
H          -2.1107311     1.0336919     1.1166280
C           1.1346496    -0.7009836    -0.2284426
C          -1.0509901    -0.8304337     0.8544615
H          -1.8292390    -1.4333652     1.3158073
C           0.1046914    -1.4443381     0.3751354
H           0.2104649    -2.5207144     0.4823716
C           3.3888999    -1.8807371     0.4476614
H           3.3418555    -2.9391774     0.7280618
H           3.2820719    -1.2731125     1.3517878
C           2.4073316    -1.4055306    -0.6803298
C           2.0750437    -2.5595830    -1.6469870
H           2.9867660    -3.0714610    -1.9762946
H           1.5608343    -2.1801750    -2.5377610
H           1.4280430    -3.3099577    -1.1803102
C           3.5879323    -0.5626728    -1.2658814
H           3.5840113     0.4753477    -0.9225497
H           3.6989083    -0.5678716    -2.3556390
C           4.5801503    -1.4138184    -0.4276205
H           5.3853820    -0.8738316     0.0793127
H           5.0255097    -2.2317585    -1.0021101
25
404_C11H14_0-6-14-19 (15,) energy =    -427.5789677
C           0.8902245     0.6567811    -0.4632429
H           1.6030338     1.2391625    -1.0398677
C          -0.2787120     1.2714064    -0.0058885
H          -0.4536912     2.3215791    -0.2261416
C          -1.2128174     0.5462360     0.7321080
H          -2.1197829     1.0244120     1.0924302
C           1.1442336    -0.6958454    -0.2054711
C          -0.9692072    -0.8016855     1.0073832
H          -1.6858296    -1.3783934     1.5869354
C           0.1948580    -1.4113786     0.5435069
H           0.3749795    -2.4593086     0.7730309
C           3.3505984    -1.9848931     0.4288661
H           3.2880797    -3.0648230     0.6044208
H           3.2243854    -1.4662789     1.3844803
C           2.4089453    -1.3942732    -0.6768036
C           2.0580345    -2.4579084    -1.7357089
H           2.9553380    -2.9861714    -2.0799891
H           1.5832559    -1.9928666    -2.6076364
H           1.3633188    -3.2044499    -1.3343964
C           3.6156666    -0.5248654    -1.1583128
H           3.6020399     0.4821475    -0.7306349
H           3.7632712    -0.4432974    -2.2407889
C           4.5724736    -1.4549162    -0.3651497
H           5.3641612    -0.9687789     0.2126382
H           5.0308664    -2.2241880    -0.9942404
25
404_C11H14_0-6-14-19 (30,) energy =    -427.5798821
C           0.8066036     0.5983620    -0.6008949
H           1.4628729     1.1302921    -1.2851051
C          -0.3655698     1.2140855    -0.1565236
H          -0.6077977     2.2181873    -0.4957923
C          -1.2197387     0.5473676     0.7221254
H          -2.1298275     1.0270095     1.0725040
C           1.1465020    -0.6942363    -0.1814262
C          -0.8927655    -0.7410306     1.1506628
H          -1.5483713    -1.2695490     1.8383183
C           0.2775078    -1.3525846     0.7019083
H           0.5244295    -2.3545858     1.0462115
C           3.3039503    -2.0883025     0.3946017
H           3.2289201    -3.1790739     0.4687543
H           3.1553182    -1.6584097     1.3903199
C           2.4011303    -1.3884686    -0.6778687
C           2.0442268    -2.3523327    -1.8251234
H           2.9345095    -2.8733439    -2.1983814
H           1.5932057    -1.8080766    -2.6632140
H           1.3249257    -3.1090474    -1.4906268
C           3.6327188    -0.4986958    -1.0510132
H           3.6050491     0.4713967    -0.5446721
H           3.8174403    -0.3319058    -2.1180968
C           4.5546195    -1.5031985    -0.3110099
H           5.3310588    -1.0783136     0.3321041
H           5.0270777    -2.2194832    -0.9904194
25
404_C11H14_0-6-14-19 (45,) energy =    -427.5800174
C           0.7108756     0.5099826    -0.7318280
H           1.3003502     0.9721721    -1.5206479
C          -0.4605381     1.1299278    -0.2962390
H          -0.7746953     2.0676813    -0.7478298
C          -1.2257400     0.5502170     0.7175874
H          -2.1370332     1.0329141     1.0605692
C           1.1459322    -0.6961409    -0.1634500
C          -0.8085210    -0.6530012     1.2881555
H          -1.3961316    -1.1136083     2.0784410
C           0.3653301    -1.2687402     0.8497705
H           0.6789768    -2.2060154     1.3030577
C           3.2573277    -2.1874628     0.3540219
H           3.1657693    -3.2792356     0.3321971
H           3.0880850    -1.8424172     1.3790112
C           2.3970045    -1.3830971    -0.6782372
C           2.0569616    -2.2368342    -1.9129292
H           2.9487310    -2.7405772    -2.3059544
H           1.6382819    -1.6160239    -2.7137673
H           1.3162029    -3.0052671    -1.6622020
C           3.6539438    -0.4815598    -0.9305583
H           3.6134534     0.4396126    -0.3404830
H           3.8769457    -0.2211979    -1.9714842
C           4.5375587    -1.5631243    -0.2584351
H           5.3019893    -1.2137161     0.4420084
H           5.0177265    -2.2233944    -0.9875080
25
404_C11H14_0-6-14-19 (60,) energy =    -427.5792477
C           0.6030703     0.3998314    -0.8515948
H           1.1119927     0.7783415    -1.7355200
C          -0.5660624     1.0217839    -0.4167060
H          -0.9600987     1.8740565    -0.9647881
C          -1.2309704     0.5505422     0.7179383
H          -2.1432284     1.0327586     1.0589938
C           1.1460738    -0.6954837    -0.1599940
C          -0.7133221    -0.5454506     1.4069255
H          -1.2234755    -0.9264238     2.2881948
C           0.4620558    -1.1617799     0.9695917
H           0.8441783    -2.0197797     1.5154474
C           3.2150290    -2.2811658     0.2933175
H           3.0945507    -3.3645898     0.1816575
H           3.0381289    -2.0161935     1.3402075
C           2.4000227    -1.3720122    -0.6873467
C           2.0958020    -2.1109968    -2.0020430
H           2.9944153    -2.5966638    -2.4014462
H           1.7191163    -1.4214692    -2.7661819
H           1.3346715    -2.8840451    -1.8438264
C           3.6836682    -0.4754152    -0.8079185
H           3.6384325     0.3772006    -0.1229901
H           3.9408534    -0.1081289    -1.8081355
C           4.5253305    -1.6400444    -0.2307787
H           5.2846376    -1.3841187     0.5142420
H           5.0013965    -2.2390309    -1.0134229
25
404_C11H14_0-6-14-19 (75,) energy =    -427.5775790
C           0.4764597     0.2634989    -0.9537808
H           0.8874569     0.5402680    -1.9212808
C          -0.6865080     0.8909774    -0.5112365
H          -1.1680955     1.6365790    -1.1390998
C          -1.2348304     0.5599304     0.7297781
H          -2.1440292     1.0442048     1.0760087
C           1.1376247    -0.6966311    -0.1672775
C          -0.6039420    -0.4025341     1.5156122
H          -1.0222208    -0.6792228     2.4802544
C           0.5659934    -1.0233245     1.0696103
H           1.0253079    -1.7802538     1.6971622
C           3.1636078    -2.3730941     0.2305754
H           3.0213453    -3.4385077     0.0176910
H           2.9672837    -2.2028556     1.2924866
C           2.4003429    -1.3648850    -0.6958214
C           2.1592500    -1.9978397    -2.0772646
H           3.0706643    -2.4768166    -2.4536810
H           1.8485662    -1.2538992    -2.8185148
H           1.3753482    -2.7620447    -2.0195699
C           3.7057971    -0.4875814    -0.6783208
H           3.6465207     0.2921348     0.0874936
H           4.0041395    -0.0253022    -1.6265377
C           4.5049864    -1.7189470    -0.1886934
H           5.2419289    -1.5513330     0.6024509
H           4.9969349    -2.2525269    -1.0077877
25
404_C11H14_0-6-14-19 (90,) energy =    -427.5760990
C           0.3396639     0.0865720    -1.0332774
H           0.6286049     0.2325615    -2.0692111
C          -0.8097334     0.7249018    -0.5679500
H          -1.3901761     1.3448977    -1.2467544
C          -1.2160841     0.5668044     0.7572680
H          -2.1137534     1.0591404     1.1217067
C           1.1250388    -0.7229796    -0.1933772
C          -0.4539779    -0.2341125     1.6062547
H          -0.7557320    -0.3734633     2.6414293
C           0.6984637    -0.8667342     1.1358371
H           1.2627737    -1.4851805     1.8256665
C           3.1049708    -2.4849734     0.1416291
H           2.9657302    -3.5153463    -0.2038947
H           2.8493080    -2.4449254     1.2026837
C           2.4039695    -1.3730886    -0.7152516
C           2.2559216    -1.8689253    -2.1643179
H           3.1663966    -2.3841257    -2.4902484
H           2.0835650    -1.0483919    -2.8686143
H           1.4209768    -2.5737371    -2.2527076
C           3.7179577    -0.5240310    -0.5452792
H           3.6260190     0.1849074     0.2835037
H           4.0704264     0.0167050    -1.4312608
C           4.4748573    -1.8082344    -0.1263779
H           5.1580195    -1.7259099     0.7243295
H           5.0187052    -2.2669574    -0.9577764
25
404_C11H14_0-6-14-19 (105,) energy =    -427.5763726
C           0.2106976    -0.0848858    -1.0746536
H           0.3821335    -0.0769908    -2.1456388
C          -0.9297164     0.5511188    -0.5800741
H          -1.6127031     1.0377871    -1.2719841
C          -1.1934000     0.5630296     0.7885530
H          -2.0817817     1.0552591     1.1751891
C           1.1191686    -0.7325877    -0.2216953
C          -0.2979912    -0.0645501     1.6553851
H          -0.4834449    -0.0634300     2.7266620
C           0.8398185    -0.6968535     1.1553298
H           1.5212760    -1.1650092     1.8592900
C           3.0285606    -2.5687305     0.0490495
H           2.9039474    -3.5552105    -0.4111798
H           2.6822245    -2.6338216     1.0830822
C           2.4036046    -1.3682369    -0.7459791
C           2.3281265    -1.7269837    -2.2383781
H           3.2442696    -2.2379754    -2.5544205
H           2.2239846    -0.8380696    -2.8703141
H           1.4841466    -2.3957268    -2.4448137
C           3.7265754    -0.5706588    -0.4459337
H           3.6068395     0.0989685     0.4113250
H           4.1453367     0.0026127    -1.2808187
C           4.4246412    -1.8991081    -0.0566511
H           5.0335196    -1.8877148     0.8524790
H           5.0326499    -2.3115679    -0.8676666
25
404_C11H14_0-6-14-19 (120,) energy =    -427.5772516
C           0.1297104    -0.2249882    -1.0946393
H           0.2274920    -0.3275862    -2.1699439
C          -1.0204520     0.3832010    -0.5850812
H          -1.7849776     0.7391823    -1.2712241
C          -1.1890369     0.5338238     0.7897840
H          -2.0834021     1.0059711     1.1875199
C           1.1405880    -0.7035534    -0.2477008
C          -0.1912885     0.0713785     1.6502627
H          -0.3029718     0.1826039     2.7259646
C           0.9532424    -0.5342770     1.1358131
H           1.7167869    -0.8771842     1.8292810
C           2.9593442    -2.6104672    -0.0239062
H           2.8212145    -3.5627214    -0.5482511
H           2.5443279    -2.7132961     0.9822630
C           2.4231970    -1.3377772    -0.7742439
C           2.3994729    -1.5931495    -2.2867358
H           3.3303879    -2.0748431    -2.6055681
H           2.3053832    -0.6606575    -2.8552383
H           1.5714359    -2.2538335    -2.5699090
C           3.7627131    -0.6202121    -0.3662208
H           3.6328643     0.0122637     0.5170053
H           4.2469918    -0.0259087    -1.1493136
C           4.3841889    -1.9969776    -0.0156780
H           4.9416974    -2.0602847     0.9238887
H           5.0198558    -2.3913431    -0.8144745
25
404_C11H14_0-6-14-19 (135,) energy =    -427.5773658
C           0.0639048    -0.3518661    -1.0778295
H           0.1099728    -0.5580205    -2.1417069
C          -1.1025821     0.2167292    -0.5592613
H          -1.9322923     0.4373489    -1.2262950
C          -1.2049089     0.4996243     0.8010799
H          -2.1112927     0.9420704     1.2056836
C           1.1602882    -0.6507616    -0.2555210
C          -0.1267809     0.2054304     1.6384713
H          -0.1885962     0.4170627     2.7030675
C           1.0333073    -0.3612565     1.1149851
H           1.8547407    -0.5842764     1.7911725
C           2.8814494    -2.6288211    -0.0846417
H           2.7077211    -3.5488809    -0.6542503
H           2.4241737    -2.7436331     0.9024361
C           2.4379375    -1.2913675    -0.7860305
C           2.4513313    -1.4601718    -2.3098648
H           3.3968028    -1.9085924    -2.6343268
H           2.3504263    -0.4963231    -2.8227678
H           1.6439133    -2.1181584    -2.6519176
C           3.7986555    -0.6724779    -0.2962389
H           3.6825406    -0.0742401     0.6115748
H           4.3398870    -0.0705746    -1.0350553
C           4.3349749    -2.0968527    -0.0001173
H           4.8568205    -2.2388361     0.9512473
H           4.9751261    -2.4830790    -0.7993316
25
404_C11H14_0-6-14-19 (150,) energy =    -427.5766126
C           0.4275001    -1.0348554     1.1051814
H           0.7840786    -1.7950177     1.7918533
C          -0.7337261    -0.3328983     1.4357308
H          -1.2483185    -0.5588437     2.3664341
C          -1.2312212     0.6494200     0.5814585
H          -2.1357702     1.1952261     0.8361246
C           1.1230977    -0.7836982    -0.0882951
C          -0.5488119     0.9240187    -0.6046375
H          -0.9177509     1.6895744    -1.2827561
C           0.6101751     0.2201172    -0.9283376
H           1.1238282     0.4681704    -1.8526207
C           3.7182317    -0.5894756    -0.3693883
H           4.3574823    -0.7147764     0.5120803
H           3.4675226     0.4709389    -0.4689554
C           2.4297708    -1.4947383    -0.4275131
C           2.6450558    -2.7865294     0.3724252
H           3.5677492    -3.2831141     0.0524651
H           1.8181664    -3.4910208     0.2232440
H           2.7412239    -2.5926899     1.4466207
C           2.7664156    -1.7418747    -1.9427199
H           2.1930301    -1.1054932    -2.6207833
H           2.6647193    -2.7776243    -2.2859617
C           4.2015220    -1.2048013    -1.7064069
H           4.5984462    -0.5121461    -2.4548529
H           4.9337288    -2.0053722    -1.5624242
25
404_C11H14_0-6-14-19 (165,) energy =    -427.5760050
C           0.5750796    -0.8540502     1.1671648
H           1.0500157    -1.4787656     1.9165514
C          -0.5886451    -0.1681116     1.5154704
H          -0.9931792    -0.2757776     2.5188863
C          -1.2319098     0.6472468     0.5844221
H          -2.1409796     1.1792400     0.8519711
C           1.1373151    -0.7474381    -0.1170775
C          -0.6910909     0.7684295    -0.6948830
H          -1.1774778     1.3975104    -1.4363423
C           0.4758603     0.0826084    -1.0360045
H           0.8663784     0.2025876    -2.0410497
C           3.7544323    -0.6159263    -0.2674641
H           4.3276061    -0.8066485     0.6471488
H           3.5489080     0.4570856    -0.3338152
C           2.4422091    -1.4612095    -0.4627293
C           2.5667156    -2.8244888     0.2399852
H           3.4803918    -3.3388260    -0.0780609
H           1.7153858    -3.4706814    -0.0038886
H           2.6187253    -2.7268649     1.3294322
C           2.8563702    -1.6191408    -1.9677538
H           2.3815459    -0.8932429    -2.6312747
H           2.7165332    -2.6164774    -2.3991150
C           4.3002590    -1.1848543    -1.6008346
H           4.7890679    -0.4781294    -2.2781707