23
225_C9H11NO2_0-2-9-10 (-165,) energy =    -554.7746533
N           1.2120338    -0.8479664     0.1759365
H           0.9891200     0.1200906     0.3605138
C           2.4606232    -1.1235222    -0.3496329
C           5.5987840     1.6117340     0.8161578
H           6.4023789     2.2769850     1.1211364
C           4.4038511     1.5773082     1.5297717
H           4.2613301     2.2020957     2.4062383
C           3.3969786     0.7063860     1.1178256
H           2.4921671     0.6360496     1.7131427
C           3.5345219    -0.1230522    -0.0050059
C           4.7674599    -0.0883775    -0.7098698
O           4.8882511    -0.8842330    -1.7987687
C           6.1045114    -0.8767668    -2.5276668
H           5.9666564    -1.6017765    -3.3313662
H           6.9528636    -1.1854121    -1.9030091
H           6.3140345     0.1107438    -2.9605423
C           5.7820629     0.7865903    -0.2923682
H           6.7202532     0.8270489    -0.8324112
O           2.6670814    -2.1623888    -0.9635206
C           0.0970994    -1.7255067    -0.1448065
H          -0.7489861    -1.4742874     0.5007204
H           0.3958652    -2.7592977     0.0371997
H          -0.2139964    -1.6464231    -1.1955100
23
225_C9H11NO2_0-2-9-10 (-150,) energy =    -554.7766570
N           1.2278405    -0.8112032     0.0402668
H           1.0555361     0.1821122     0.1062886
C           2.5088140    -1.2153858    -0.2694618
C           5.6179338     1.5938250     0.7605912
H           6.4167114     2.2791524     1.0319235
C           4.4552550     1.5331760     1.5236372
H           4.3350423     2.1591859     2.4026429
C           3.4500915     0.6390915     1.1539520
H           2.5592437     0.5529181     1.7693309
C           3.5736094    -0.1925844     0.0340549
C           4.7656604    -0.1237336    -0.7293984
O           4.8409839    -0.9180652    -1.8257813
C           6.0269865    -0.9042270    -2.6027160
H           5.8670280    -1.6376365    -3.3946354
H           6.9021929    -1.1974494    -2.0085574
H           6.2080849     0.0818933    -3.0514970
C           5.7756292     0.7749125    -0.3586025
H           6.6868975     0.8423621    -0.9408739
O           2.7487660    -2.3440564    -0.6776957
C           0.0941449    -1.6765583    -0.2373749
H          -0.7489096    -1.3868058     0.3966898
H           0.3824223    -2.7043140    -0.0120520
H          -0.2189035    -1.6350741    -1.2898537
23
225_C9H11NO2_0-2-9-10 (-135,) energy =    -554.7774754
N           1.3516926    -0.8506990    -0.0860771
H           1.2183130     0.1502402    -0.0936189
C           2.6392381    -1.3250425    -0.1644980
C           5.7045916     1.5971563     0.6372573
H           6.4934325     2.3144555     0.8482318
C           4.5903254     1.5162993     1.4674085
H           4.4986995     2.1606719     2.3365774
C           3.5932746     0.5835645     1.1738028
H           2.7302553     0.4913620     1.8278980
C           3.6917947    -0.2709084     0.0717523
C           4.8266779    -0.1755663    -0.7664122
O           4.8520859    -0.9974119    -1.8473989
C           5.9845768    -0.9686299    -2.7002639
H           5.7952413    -1.7217588    -3.4668217
H           6.9037049    -1.2261858    -2.1581826
H           6.1089344     0.0128112    -3.1775983
C           5.8258279     0.7619417    -0.4760935
H           6.6979299     0.8490294    -1.1134480
O           2.9027059    -2.5052727    -0.3526683
C           0.2006169    -1.7088959    -0.2977877
H          -0.5695277    -1.5147587     0.4569446
H           0.5428624    -2.7409125    -0.2105791
H          -0.2378505    -1.5687208    -1.2946787
23
225_C9H11NO2_0-2-9-10 (-120,) energy =    -554.7772765
N           1.3006269    -0.7679222    -0.1541508
H           1.2150674     0.2330236    -0.2557318
C           2.5555882    -1.2881198     0.0298232
C           5.6402328     1.6337504     0.7427066
H           6.4327781     2.3541610     0.9274037
C           4.5578557     1.5455404     1.6133193
H           4.4949915     2.1893618     2.4854765
C           3.5517194     0.6110555     1.3535156
H           2.7053556     0.5212006     2.0298057
C           3.6205387    -0.2396944     0.2488989
C           4.7166469    -0.1334578    -0.6335025
O           4.6954862    -0.9591379    -1.7147310
C           5.7976077    -0.9395531    -2.6070528
H           5.5809376    -1.6975056    -3.3616024
H           6.7342858    -1.1947680    -2.0948756
H           5.9069567     0.0382726    -3.0953164
C           5.7236110     0.8049900    -0.3799061
H           6.5699558     0.8991749    -1.0504170
O           2.7899090    -2.4889060     0.0501239
C           0.1376068    -1.6034020    -0.3892104
H          -0.6826529    -1.3311660     0.2848552
H           0.4360850    -2.6350832    -0.1977657
H          -0.2153449    -1.5243291    -1.4254281
23
225_C9H11NO2_0-2-9-10 (-105,) energy =    -554.7766911
N           1.3505481    -0.7885985    -0.3007248
H           1.3102684     0.1909886    -0.5424231
C           2.5454396    -1.2892899     0.1395247
C           5.6507771     1.6367470     0.7437000
H           6.4488781     2.3582285     0.8976669
C           4.6120038     1.5337535     1.6645451
H           4.5895188     2.1690154     2.5449480
C           3.5970362     0.5977497     1.4453864
H           2.7831736     0.4999674     2.1594011
C           3.6151135    -0.2356268     0.3271551
C           4.6656959    -0.1162725    -0.6040478
O           4.5918053    -0.9401202    -1.6878289
C           5.6563070    -0.9243789    -2.6250711
H           5.4068040    -1.6813004    -3.3705453
H           6.6123088    -1.1823153    -2.1514775
H           5.7485995     0.0531669    -3.1173138
C           5.6827104     0.8206969    -0.3910763
H           6.4965727     0.9229289    -1.0996929
O           2.7328958    -2.4721884     0.3899818
C           0.1987657    -1.6307927    -0.5664044
H          -0.6852103    -1.2697329    -0.0280051
H           0.4463520    -2.6353025    -0.2203457
H          -0.0318217    -1.6711030    -1.6383896
23
225_C9H11NO2_0-2-9-10 (-90,) energy =    -554.7766565
N           1.4859889    -0.7797009    -0.4605596
H           1.5500086     0.1202039    -0.9146722
C           2.5805427    -1.2160421     0.2330983
C           5.7728832     1.6288770     0.7574403
H           6.5932804     2.3281785     0.8954184
C           4.7718875     1.5269820     1.7201386
H           4.8020324     2.1413779     2.6149942
C           3.7280873     0.6184933     1.5265528
H           2.9481544     0.5139725     2.2762281
C           3.6706569    -0.1759921     0.3819996
C           4.6891421    -0.0665010    -0.5836893
O           4.5533393    -0.8743504    -1.6771929
C           5.5867957    -0.8754520    -2.6493147
H           5.2924759    -1.6153917    -3.3956057
H           6.5503110    -1.1650029    -2.2107442
H           5.6895237     0.1056912    -3.1320959
C           5.7396132     0.8378937    -0.3946008
H           6.5293409     0.9312326    -1.1313235
O           2.6607788    -2.3254853     0.7438417
C           0.3596512    -1.6429474    -0.7664059
H          -0.5866328    -1.1413514    -0.5353345
H           0.4565351    -2.5355688    -0.1469798
H           0.3525794    -1.9445658    -1.8219008
23
225_C9H11NO2_0-2-9-10 (-75,) energy =    -554.7779251
N           1.5384464    -0.8349161    -0.5543859
H           1.7417308    -0.1190334    -1.2381238
C           2.5275536    -1.1359305     0.3408934
C           5.8182763     1.6129773     0.7409996
H           6.6651134     2.2845895     0.8546066
C           4.8641018     1.5108637     1.7509868
H           4.9591620     2.0964688     2.6604716
C           3.7910340     0.6326290     1.5902009
H           3.0554303     0.5138879     2.3806700
C           3.6415904    -0.1154255     0.4218988
C           4.6194286    -0.0145232    -0.5856168
O           4.4111008    -0.7911407    -1.6944761
C           5.4070192    -0.8049527    -2.7055279
H           5.0599635    -1.5173779    -3.4560897
H           6.3755435    -1.1367150    -2.3101953
H           5.5258370     0.1826813    -3.1708328
C           5.7060891     0.8523490    -0.4256726
H           6.4646012     0.9378677    -1.1953205
O           2.4785951    -2.0964862     1.0993966
C           0.4488601    -1.7560668    -0.8281995
H          -0.4645474    -1.1974215    -1.0548796
H           0.2920644    -2.3618593     0.0652567
H           0.6740071    -2.4271947    -1.6682744
23
225_C9H11NO2_0-2-9-10 (-60,) energy =    -554.7804077
N           1.6149804    -0.8995292    -0.6585126
H           1.9781143    -0.4107424    -1.4656616
C           2.4688534    -1.0381128     0.4019190
C           5.8743880     1.5755837     0.7466493
H           6.7476530     2.2133685     0.8550488
C           4.9390600     1.4843120     1.7755525
H           5.0756569     2.0443067     2.6957824
C           3.8351295     0.6464355     1.6207872
H           3.1173948     0.5215866     2.4257246
C           3.6245395    -0.0649859     0.4372417
C           4.5872801     0.0227447    -0.5876062
O           4.3331602    -0.7143643    -1.7172259
C           5.3083192    -0.7297201    -2.7495478
H           4.9219592    -1.4059084    -3.5143247
H           6.2716244    -1.1070500    -2.3842117
H           5.4518520     0.2675342    -3.1857464
C           5.7089156     0.8447381    -0.4319820
H           6.4542547     0.9183668    -1.2153820
O           2.2548735    -1.8017562     1.3373376
C           0.5133387    -1.8245094    -0.8650716
H          -0.3060583    -1.3135211    -1.3797045
H           0.1718088    -2.1654994     0.1130568
H           0.8102145    -2.7036583    -1.4537806
23
225_C9H11NO2_0-2-9-10 (-45,) energy =    -554.7830831
N           1.6791970    -0.9931431    -0.7317972
H           2.1581084    -0.6807756    -1.5656673
C           2.3980807    -0.9626995     0.4308230
C           5.9020130     1.5296954     0.7567119
H           6.7923809     2.1435525     0.8641738
C           4.9797477     1.4381342     1.7970964
H           5.1421448     1.9748969     2.7269300
C           3.8537184     0.6325420     1.6391768
H           3.1408555     0.5049076     2.4472594
C           3.6048422    -0.0526952     0.4460337
C           4.5560516     0.0382306    -0.5921587
O           4.2828099    -0.6649965    -1.7407213
C           5.2451926    -0.6646019    -2.7861547
H           4.8401574    -1.3148702    -3.5635710
H           6.2069488    -1.0645751    -2.4424405
H           5.3956366     0.3422949    -3.1962138
C           5.6993580     0.8293115    -0.4340000
H           6.4337936     0.9035859    -1.2273900
O           2.0305837    -1.5335591     1.4542423
C           0.5388822    -1.8797853    -0.8854591
H          -0.1705531    -1.4456459    -1.5965234
H           0.0582018    -1.9883830     0.0875834
H           0.8296211    -2.8788932    -1.2395076
23
225_C9H11NO2_0-2-9-10 (-30,) energy =    -554.7849543
N           1.7466793    -1.0978685    -0.7644679
H           2.2943150    -0.9078037    -1.5921691
C           2.3433048    -0.8778694     0.4427041
C           5.9391189     1.4951762     0.7544896
H           6.8440827     2.0876624     0.8601310
C           5.0259469     1.4066757     1.8027077
H           5.2079047     1.9260525     2.7387764
C           3.8798492     0.6322111     1.6413152
H           3.1641487     0.5140711     2.4478661
C           3.6024446    -0.0384847     0.4447461
C           4.5449602     0.0538621    -0.6041746
O           4.2634939    -0.6267867    -1.7651177
C           5.2117543    -0.6044170    -2.8236817
H           4.7920648    -1.2321618    -3.6116924
H           6.1753230    -1.0187439    -2.5034596
H           5.3612981     0.4120276    -3.2089352
C           5.7057995     0.8190234    -0.4439612
H           6.4318193     0.8924342    -1.2449027
O           1.8452037    -1.2539052     1.5024728
C           0.5590664    -1.9242322    -0.8783491
H          -0.0514688    -1.5767343    -1.7175514
H          -0.0106314    -1.8363316     0.0476567
H           0.8017708    -2.9849823    -1.0334757
23
225_C9H11NO2_0-2-9-10 (-15,) energy =    -554.7858635
N           1.8024429    -1.2088091    -0.7763753
H           2.4034582    -1.1229291    -1.5834528
C           2.2849827    -0.7865679     0.4254733
C           5.9731191     1.4481039     0.7534561
H           6.8946752     2.0133278     0.8650039
C           5.0616970     1.3664330     1.8034658
H           5.2597686     1.8651138     2.7474980
C           3.8922401     0.6315400     1.6307396
H           3.1662044     0.5309880     2.4301738
C           3.5923586    -0.0202660     0.4281921
C           4.5333581     0.0690033    -0.6246221
O           4.2423713    -0.5841984    -1.7991519
C           5.1784316    -0.5405506    -2.8680702
H           4.7406031    -1.1369650    -3.6703595
H           6.1401248    -0.9775758    -2.5735561
H           5.3357117     0.4857996    -3.2218617
C           5.7144509     0.8010072    -0.4552602
H           6.4374812     0.8712793    -1.2590100
O           1.6695660    -0.9636998     1.4769574
C           0.5740484    -1.9740927    -0.8717524
H           0.0558517    -1.7262615    -1.8035921
H          -0.0596135    -1.7165446    -0.0220683
H           0.7573213    -3.0574967    -0.8483891
23
225_C9H11NO2_0-2-9-10 (0,) energy =    -554.7860789
N           1.8387761    -1.3481808    -0.7262830
H           2.4304494    -1.3251386    -1.5437872
C           2.2418553    -0.6737053     0.3841014
C           6.0472792     1.3728209     0.6038113
H           6.9969269     1.8947821     0.6871570
C           5.1500914     1.3594511     1.6689788
H           5.3869200     1.8700376     2.5975972
C           3.9424256     0.6819619     1.5295490
H           3.2180563     0.6477487     2.3360441
C           3.5946767     0.0092033     0.3513230
C           4.5191770     0.0348190    -0.7200596
O           4.1788198    -0.6223488    -1.8789637
C           5.0872371    -0.6194733    -2.9723745
H           4.6044273    -1.1994253    -3.7607977
H           6.0383833    -1.0940885    -2.7025463
H           5.2754810     0.3989755    -3.3333465
C           5.7355613     0.7147321    -0.5860932
H           6.4453165     0.7364261    -1.4042762
O           1.5419722    -0.6163767     1.3961053
C           0.5453318    -2.0026839    -0.7771675
H          -0.2585815    -1.3086941    -1.0582986
H           0.3097697    -2.4086773     0.2085931
H           0.5803447    -2.8151332    -1.5088031
23
225_C9H11NO2_0-2-9-10 (15,) energy =    -554.7858845
N           1.8971507    -1.4568001    -0.6709841
H           2.5364901    -1.5319712    -1.4489339
C           2.2056697    -0.5875660     0.3301486
C           6.0790946     1.3134068     0.6119901
H           7.0445683     1.8029568     0.7087828
C           5.1779724     1.3116799     1.6740117
H           5.4265834     1.7996719     2.6116692
C           3.9477326     0.6795752     1.5177261
H           3.2133918     0.6714031     2.3159293
C           3.5885564     0.0309063     0.3298482
C           4.5145322     0.0487684    -0.7395609
O           4.1521050    -0.5770874    -1.9091158
C           5.0461717    -0.5542816    -3.0140176
H           4.5385327    -1.0904685    -3.8176919
H           5.9894600    -1.0616622    -2.7771999
H           5.2541790     0.4728118    -3.3371479
C           5.7508151     0.6883683    -0.5915174
H           6.4625299     0.7046082    -1.4081797
O           1.4155955    -0.3434164     1.2423577
C           0.5817550    -2.0638483    -0.7512651
H          -0.1635240    -1.3851765    -1.1885251
H           0.2462882    -2.3279289     0.2536426
H           0.6403966    -2.9669037    -1.3653794
23
225_C9H11NO2_0-2-9-10 (30,) energy =    -554.7849656
N           1.9374901    -1.5390446    -0.5825385
H           2.6249079    -1.7040905    -1.3044675
C           2.1667616    -0.5054820     0.2770824
C           6.0868860     1.2681716     0.6521397
H           7.0631969     1.7322098     0.7646133
C           5.1798940     1.2648871     1.7094386
H           5.4358638     1.7277871     2.6577468
C           3.9327932     0.6708259     1.5325223
H           3.1897339     0.6791034     2.3228281
C           3.5729320     0.0502047     0.3309883
C           4.5011122     0.0724246    -0.7342792
O           4.1213644    -0.5263717    -1.9122355
C           5.0045166    -0.4782954    -3.0248835
H           4.4818100    -0.9802234    -3.8409813
H           5.9441987    -1.0049261    -2.8161020
H           5.2228248     0.5564861    -3.3151524
C           5.7509209     0.6798626    -0.5681222
H           6.4659550     0.7002426    -1.3819544
O           1.3032567    -0.0953310     1.0509951
C           0.6077214    -2.1034017    -0.7272678
H          -0.0446400    -1.4821600    -1.3566546
H           0.1466313    -2.1833101     0.2589151
H           0.6872317    -3.0986418    -1.1735392
23
225_C9H11NO2_0-2-9-10 (45,) energy =    -554.7830824
N           1.9658217    -1.6127830    -0.4799109
H           2.7015704    -1.8784049    -1.1205364
C           2.1433677    -0.4425340     0.2034488
C           6.0889488     1.2288468     0.6842780
H           7.0710196     1.6756441     0.8147684
C           5.1761291     1.2146167     1.7368712
H           5.4338706     1.6528170     2.6963654
C           3.9182724     0.6484445     1.5390191
H           3.1697770     0.6624960     2.3245579
C           3.5649766     0.0561457     0.3227505
C           4.4947648     0.0925670    -0.7378407
O           4.1008154    -0.4838659    -1.9215169
C           4.9731921    -0.4083291    -3.0406154
H           4.4404900    -0.8843524    -3.8657904
H           5.9129917    -0.9446459    -2.8568967
H           5.1944597     0.6332697    -3.3036738
C           5.7527495     0.6767715    -0.5533396
H           6.4716912     0.7078952    -1.3636124
O           1.2280769     0.1166814     0.8017075
C           0.6313828    -2.1418329    -0.7057921
H           0.0982821    -1.6105139    -1.5065541
H           0.0517358    -2.0364184     0.2128899
H           0.7050603    -3.2005692    -0.9693171
23
225_C9H11NO2_0-2-9-10 (60,) energy =    -554.7804085
N           1.9896198    -1.6556549    -0.3399231
H           2.7717627    -2.0624025    -0.8351140
C           2.1667698    -0.3842613     0.1345500
C           6.1532251     1.1549030     0.6683991
H           7.1462094     1.5750384     0.8045802
C           5.2532681     1.1235102     1.7319334
H           5.5319864     1.5217490     2.7029299
C           3.9785506     0.5956592     1.5300032
H           3.2435113     0.6030498     2.3289082
C           3.6037589     0.0545901     0.2978136
C           4.5173630     0.1096113    -0.7731686
O           4.0833564    -0.4202968    -1.9627083
C           4.9295931    -0.3181441    -3.0985775
H           4.3702899    -0.7560839    -3.9273133
H           5.8652513    -0.8750059    -2.9577519
H           5.1627743     0.7285326    -3.3307590
C           5.7912907     0.6572207    -0.5853433
H           6.5003340     0.7031934    -1.4037826
O           1.2414198     0.3159253     0.5313324
C           0.6623996    -2.1714267    -0.6309361
H           0.3277631    -1.9174416    -1.6464212
H          -0.0357074    -1.7289868     0.0808224
H           0.6577901    -3.2596716    -0.5177795
23
225_C9H11NO2_0-2-9-10 (75,) energy =    -554.7779238
N           1.8288533    -1.3013326    -0.0957783
H           2.5941785    -1.8358064     0.2914943
C           2.1019981    -0.0198624    -0.4889124
C           5.7564827     1.7943269     0.8879904
H           6.6763740     2.2723620     1.2141330
C           4.5310278     2.2081222     1.4053790
H           4.4825367     3.0119201     2.1338726
C           3.3600822     1.5891557     0.9643129
H           2.3924504     1.9205950     1.3302224
C           3.4018887     0.5426710     0.0424172
C           4.6447001     0.1432760    -0.4844629
O           4.6019472    -0.8784043    -1.3956711
C           5.8099392    -1.2668144    -2.0316504
H           5.5348564    -2.0484679    -2.7420449
H           6.5351925    -1.6696802    -1.3121020
H           6.2660042    -0.4281318    -2.5728865
C           5.8217476     0.7682727    -0.0583275
H           6.7841492     0.4680527    -0.4566258
O           1.3180411     0.6674584    -1.1317414
C           0.6725538    -2.0238337    -0.5972128
H           0.2974361    -2.7068017     0.1712525
H           0.9034480    -2.5995897    -1.5039341
H          -0.0983166    -1.2914811    -0.8406201
23
225_C9H11NO2_0-2-9-10 (90,) energy =    -554.7766572
N           1.7717715    -1.2501308    -0.0023280
H           2.4110959    -1.6632869     0.6615116
C           2.1528195    -0.0842799    -0.6057982
C           5.7193149     1.7902009     0.9212384
H           6.6209463     2.2760894     1.2847109
C           4.4767088     2.1373932     1.4451828
H           4.3962274     2.8964282     2.2175533
C           3.3295351     1.5043302     0.9595582
H           2.3509179     1.7760057     1.3464215
C           3.4138740     0.5257432    -0.0301661
C           4.6748048     0.1833025    -0.5540926
O           4.6701422    -0.7896425    -1.5134766
C           5.8962257    -1.1226101    -2.1446773
H           5.6500439    -1.8765873    -2.8943816
H           6.6181017    -1.5427665    -1.4314589
H           6.3430463    -0.2507037    -2.6394518
C           5.8270406     0.8167439    -0.0760853
H           6.8035222     0.5617462    -0.4717790
O           1.5102264     0.4605680    -1.4936905
C           0.6271664    -2.0231047    -0.4495457
H          -0.0018497    -2.3111626     0.4000262
H           0.9336797    -2.9295509    -0.9874590
H           0.0522243    -1.3901246    -1.1268216
23
225_C9H11NO2_0-2-9-10 (105,) energy =    -554.7766891
N           1.5988730    -1.1953347     0.0844489
H           2.1060607    -1.4779524     0.9105905
C           2.1337109    -0.1966602    -0.6830187
C           5.6282253     1.7106515     0.9647169
H           6.5128076     2.2016423     1.3617202
C           4.3721649     2.0016750     1.4894928
H           4.2628088     2.7208459     2.2957391
C           3.2482449     1.3583684     0.9632137
H           2.2596650     1.5804785     1.3570728
C           3.3666557     0.4407087    -0.0803943
C           4.6436594     0.1461474    -0.5976264
O           4.6784275    -0.7868726    -1.5911176
C           5.9240625    -1.0784455    -2.2036645
H           5.7072989    -1.8101451    -2.9837541
H           6.6361658    -1.5109516    -1.4879448
H           6.3673626    -0.1832727    -2.6585209
C           5.7725815     0.7847249    -0.0728810
H           6.7608947     0.5670432    -0.4612926
O           1.6492231     0.1750681    -1.7432316
C           0.4290612    -1.9525804    -0.3211054
H          -0.3177435    -1.9776078     0.4806450
H           0.6889827    -2.9830355    -0.5950146
H           0.0060276    -1.4527078    -1.1936096
23
225_C9H11NO2_0-2-9-10 (120,) energy =    -554.7772751
N           1.4962839    -1.1050156     0.1506414
H           1.9146566    -1.2890216     1.0509913
C           2.1795853    -0.2950371    -0.7190204
C           5.6045756     1.6980436     0.9723470
H           6.4707748     2.2127961     1.3797343
C           4.3405745     1.9208269     1.5106127
H           4.2046582     2.6117003     2.3372638
C           3.2432821     1.2459851     0.9686557
H           2.2477256     1.4178265     1.3699882
C           3.3908417     0.3672877    -0.1060693
C           4.6786200     0.1405424    -0.6366404
O           4.7583590    -0.7629941    -1.6508141
C           6.0176127    -0.9875101    -2.2633411
H           5.8338336    -1.7074507    -3.0625195
H           6.7439933    -1.4085295    -1.5550724
H           6.4257645    -0.0639085    -2.6936827
C           5.7807566     0.8101476    -0.0928156
H           6.7759423     0.6434859    -0.4885733
O           1.8253154    -0.0970559    -1.8733717
C           0.3082913    -1.8412170    -0.2401045
H          -0.5008232    -1.6896332     0.4834174
H           0.5079107    -2.9169959    -0.3270532
H          -0.0018529    -1.4622231    -1.2149275
23
225_C9H11NO2_0-2-9-10 (135,) energy =    -554.7774755
N           1.4083975    -1.0264287     0.2032938
H           1.7618977    -1.1421724     1.1421072
C           2.2301731    -0.4255621    -0.7200529
C           5.5960859     1.6889637     0.9468241
H           6.4445879     2.2384690     1.3460607
C           4.3319370     1.8470794     1.5073641
H           4.1764769     2.5238650     2.3421450
C           3.2593678     1.1303207     0.9724152
H           2.2620452     1.2636242     1.3831697
C           3.4257638     0.2648692    -0.1127927
C           4.7160082     0.1096230    -0.6702223
O           4.8311999    -0.7758379    -1.6935907
C           6.0958286    -0.9422755    -2.3130650
H           5.9387839    -1.6676234    -3.1129822
H           6.8443920    -1.3324075    -1.6102208
H           6.4603675    -0.0007287    -2.7438630
C           5.7937947     0.8243946    -0.1326392
H           6.7886272     0.7103109    -0.5469586
O           1.9815158    -0.4060253    -1.9182014
C           0.2143973    -1.7535884    -0.1864999
H          -0.6224715    -1.5033722     0.4748630
H           0.3699315    -2.8403644    -0.1644800
H          -0.0286547    -1.4580673    -1.2079436
23
225_C9H11NO2_0-2-9-10 (150,) energy =    -554.7766571
N           1.3410804    -0.9584584     0.1946248
H           1.6171592    -1.0390014     1.1631295
C           2.3052559    -0.5725199    -0.7117600
C           5.5717474     1.7092813     0.9445432
H           6.3920563     2.3032606     1.3390404
C           4.3032640     1.7997782     1.5106407
H           4.1139734     2.4699217     2.3437467
C           3.2689936     1.0295095     0.9782726
H           2.2664931     1.1277220     1.3845662
C           3.4716748     0.1628654    -0.1029090
C           4.7672114     0.0860007    -0.6723707
O           4.9384759    -0.7860418    -1.6965380
C           6.2108836    -0.8756211    -2.3157091
H           6.0947005    -1.6037430    -3.1200429
H           6.9805321    -1.2272220    -1.6152488
H           6.5216101     0.0875507    -2.7408554
C           5.8067632     0.8594593    -0.1374272
H           6.8030839     0.8012208    -0.5592621
O           2.1672125    -0.7481153    -1.9151881
C           0.1789352    -1.7135502    -0.2417876
H          -0.6264395    -1.5969365     0.4893005
H           0.3955292    -2.7833996    -0.3679651
H          -0.1453082    -1.3196201    -1.2060850
23
225_C9H11NO2_0-2-9-10 (165,) energy =    -554.7746533
N           1.2547947    -0.8463136     0.2028621
H           1.4293717    -0.8473031     1.1980530
C           2.3418314    -0.6708058    -0.6329849
C           5.5409806     1.7468750     0.9822415
H           6.3418731     2.3734803     1.3660035
C           4.2794390     1.7773857     1.5703555
H           4.0728695     2.4344334     2.4096906
C           3.2720032     0.9684095     1.0482094
H           2.2738767     1.0416292     1.4682317
C           3.4881598     0.1059444    -0.0367103
C           4.7761666     0.1017152    -0.6360354
O           4.9796335    -0.7414739    -1.6758964
C           6.2524932    -0.7732504    -2.2999540
H           6.1622650    -1.5005410    -3.1083371
H           7.0389721    -1.0973957    -1.6050875
H           6.5217498     0.2043423    -2.7206400
C           5.7891260     0.9191762    -0.1116621
H           6.7769840     0.9121064    -0.5561494
O           2.3043471    -1.0464965    -1.7975434
C           0.1203034    -1.6289631    -0.2623231
H          -0.7100736    -1.5003394     0.4373991
H           0.3539606    -2.6986114    -0.3531784
H          -0.1788217    -1.2684584    -1.2480673
23
225_C9H11NO2_0-2-9-10 (180,) energy =    -554.7720235
N           1.2291369    -0.9306801     0.2750447
H           0.9958698    -0.0379709     0.6840586
C           2.4047402    -1.0257472    -0.4491064
C           5.5966282     1.6238888     0.8100090
H           6.4067839     2.2748922     1.1279632
C           4.3835209     1.6211132     1.4933117
H           4.2304422     2.2580790     2.3590635
C           3.3694275     0.7700672     1.0626131
H           2.4544915     0.7424639     1.6448274
C           3.5065533    -0.0733480    -0.0516743
C           4.7629102    -0.0740028    -0.7212692
O           4.9145793    -0.8929598    -1.7873195
C           6.1555776    -0.9173021    -2.4732648
H           6.0323852    -1.6553005    -3.2674519
H           6.9779300    -1.2267716    -1.8149496
H           6.3947789     0.0580646    -2.9177247
C           5.7864683     0.7827041    -0.2829703
H           6.7395113     0.7930772    -0.7973049
O           2.5338452    -1.9002050    -1.2968117
C           0.1022786    -1.7677316    -0.1087672
H          -0.6681933    -1.6971678     0.6640459
H           0.4393252    -2.8024670    -0.1893761
H          -0.3291997    -1.4799390    -1.0774034
