19
224_C8H9NO_0-2-9-10 (-165,) energy =    -440.2615075
N           1.2536446    -0.9733262     0.1022409
H           1.0642990    -0.0664663     0.5025950
C           2.5029915    -1.2046828    -0.4131209
C           5.6957885     1.4921539     0.6366280
H           6.5132805     2.1638085     0.8848511
C           4.5288407     1.4991880     1.4026671
H           4.4390763     2.1674636     2.2548257
C           3.4782701     0.6383380     1.0844274
H           2.5954919     0.6312848     1.7184036
C           3.5823875    -0.2363663    -0.0067286
C           4.7664559    -0.2513845    -0.7559910
H           4.8399772    -0.9517335    -1.5812147
C           5.8135127     0.6114608    -0.4415616
H           6.7238209     0.5956961    -1.0347973
O           2.7411469    -2.1581992    -1.1497444
C           0.1163230    -1.7946603    -0.2749859
H          -0.5675188    -1.8977825     0.5734630
H           0.4931489    -2.7768724    -0.5616556
H          -0.4348773    -1.3740423    -1.1269785
19
224_C8H9NO_0-2-9-10 (-150,) energy =    -440.2614100
N           1.2555625    -0.9287096     0.0464441
H           1.0919577     0.0258819     0.3311602
C           2.5318134    -1.2864094    -0.3034170
C           5.6649330     1.5196164     0.6146480
H           6.4641608     2.2238137     0.8299882
C           4.5467394     1.4558444     1.4477567
H           4.4780336     2.1015506     2.3191111
C           3.5181097     0.5550191     1.1689331
H           2.6648292     0.4915708     1.8394832
C           3.6044532    -0.2956860     0.0582140
C           4.7379841    -0.2380226    -0.7629653
H           4.8001036    -0.9182335    -1.6062578
C           5.7589759     0.6695840    -0.4906061
H           6.6307506     0.7132163    -1.1378823
O           2.7899365    -2.3364928    -0.8846765
C           0.1091086    -1.7491919    -0.3013949
H          -0.6266509    -1.7331695     0.5091796
H           0.4635470    -2.7694167    -0.4524352
H          -0.3750911    -1.4101527    -1.2270485
19
224_C8H9NO_0-2-9-10 (-135,) energy =    -440.2601112
N           1.2769921    -0.9208543    -0.0939925
H           1.1369004     0.0571354     0.1131181
C           2.5626930    -1.3778659    -0.2172607
C           5.6237242     1.5428314     0.5738879
H           6.4007734     2.2798486     0.7582540
C           4.5405090     1.4361343     1.4475768
H           4.4761338     2.0831467     2.3183357
C           3.5386280     0.4946459     1.2060230
H           2.7029042     0.4044212     1.8957397
C           3.6251632    -0.3603521     0.0994629
C           4.7193141    -0.2544660    -0.7684347
H           4.7826535    -0.9318922    -1.6143526
C           5.7105154     0.6965582    -0.5350121
H           6.5531005     0.7776003    -1.2164603
O           2.8386357    -2.5094297    -0.6033794
C           0.1228033    -1.7485354    -0.3923349
H          -0.5415651    -1.8329070     0.4760591
H           0.4951736    -2.7389626    -0.6576267
H          -0.4492047    -1.3442475    -1.2362805
19
224_C8H9NO_0-2-9-10 (-120,) energy =    -440.2579620
N           1.2979550    -0.9057122    -0.1872915
H           1.1843229     0.0917551    -0.0796740
C           2.5638558    -1.4216718    -0.1082667
C           5.6087952     1.5486954     0.5626271
H           6.3785146     2.2994076     0.7204402
C           4.5852101     1.3900134     1.4979135
H           4.5583446     2.0125063     2.3883379
C           3.5916500     0.4312630     1.2901378
H           2.7941073     0.3075472     2.0187281
C           3.6325226    -0.3928494     0.1586026
C           4.6616093    -0.2293115    -0.7768885
H           4.6901439    -0.8748364    -1.6497873
C           5.6434258     0.7395359    -0.5762749
H           6.4371645     0.8637830    -1.3080474
O           2.8230186    -2.6048423    -0.2990498
C           0.1314182    -1.7271002    -0.4540182
H          -0.5831765    -1.6904374     0.3772978
H           0.4810034    -2.7527193    -0.5807848
H          -0.3768671    -1.4055804    -1.3708015
19
224_C8H9NO_0-2-9-10 (-105,) energy =    -440.2558368
N           1.3150735    -0.9073944    -0.2856678
H           1.2269671     0.0975594    -0.3312219
C           2.5458643    -1.4308677     0.0030157
C           5.6094204     1.5508885     0.5533888
H           6.3841659     2.3008140     0.6885983
C           4.6554324     1.3438629     1.5508701
H           4.6860814     1.9298316     2.4656471
C           3.6564814     0.3844886     1.3745808
H           2.9117507     0.2253547     2.1503957
C           3.6195144    -0.3880203     0.2077579
C           4.5759738    -0.1741370    -0.7920560
H           4.5471943    -0.7748392    -1.6969510
C           5.5665618     0.7921683    -0.6188876
H           6.3057783     0.9531899    -1.3990523
O           2.7746160    -2.6335957     0.0512379
C           0.1459061    -1.7337686    -0.5265569
H          -0.6355404    -1.5495496     0.2206608
H           0.4668325    -2.7742485    -0.4590486
H          -0.2691849    -1.5497188    -1.5245197
19
224_C8H9NO_0-2-9-10 (-90,) energy =    -440.2549816
N           1.3235300    -0.9214879    -0.3880467
H           1.2699917     0.0605037    -0.6177614
C           2.5031821    -1.3981649     0.1135342
C           5.6276579     1.5410918     0.5494780
H           6.4229507     2.2726736     0.6643089
C           4.7508085     1.2895568     1.6066323
H           4.8624050     1.8237178     2.5464717
C           3.7300140     0.3493815     1.4610306
H           3.0525772     0.1471058     2.2865089
C           3.5791403    -0.3446529     0.2547459
C           4.4617971    -0.0918708    -0.8018508
H           4.3532108    -0.6364787    -1.7361831
C           5.4825811     0.8482018    -0.6539397
H           6.1654131     1.0376849    -1.4779071
O           2.6822405    -2.5685070     0.4271670
C           0.1614569    -1.7646568    -0.6050108
H          -0.6904501    -1.4316459    -0.0001037
H           0.4371028    -2.7771779    -0.3068576
H          -0.1348718    -1.7685944    -1.6607284
19
224_C8H9NO_0-2-9-10 (-75,) energy =    -440.2560802
N           1.3466852    -0.9515985    -0.4783268
H           1.3398458    -0.0193228    -0.8666013
C           2.4543537    -1.3458972     0.2212060
C           5.6454388     1.5310200     0.5440512
H           6.4620730     2.2421026     0.6356177
C           4.8482888     1.2347160     1.6526721
H           5.0447169     1.7136319     2.6082224
C           3.8057736     0.3158154     1.5400077
H           3.1996756     0.0639886     2.4057360
C           3.5352064    -0.2944032     0.3090061
C           4.3455698    -0.0064324    -0.7955716
H           4.1561707    -0.4990969    -1.7460198
C           5.3969863     0.9047803    -0.6779692
H           6.0239529     1.1203802    -1.5390833
O           2.5565669    -2.4375371     0.7680072
C           0.1932083    -1.8105927    -0.6769189
H          -0.7102866    -1.3676010    -0.2412351
H           0.4045141    -2.7559114    -0.1750987
H           0.0151546    -2.0002965    -1.7422810
19
224_C8H9NO_0-2-9-10 (-60,) energy =    -440.2582718
N           1.3819552    -0.9834106    -0.5547349
H           1.4357705    -0.1129226    -1.0636875
C           2.3975424    -1.2849603     0.3123793
C           5.6580143     1.5169659     0.5336721
H           6.4920763     2.2102282     0.6022611
C           4.9324852     1.1794559     1.6798648
H           5.2027982     1.6088672     2.6408417
C           3.8707718     0.2809876     1.5966158
H           3.3224231    -0.0125596     2.4867573
C           3.5008912    -0.2594645     0.3584996
C           4.2438132     0.0643433    -0.7835765
H           3.9867939    -0.3854915    -1.7395453
C           5.3184880     0.9516723    -0.6959496
H           5.8939763     1.1935022    -1.5855327
O           2.3966955    -2.2754464     1.0349527
C           0.2275184    -1.8428225    -0.7426380
H          -0.6993627    -1.3295375    -0.4597212
H           0.3636489    -2.7119936    -0.0975711
H           0.1428054    -2.1758846    -1.7840845
19
224_C8H9NO_0-2-9-10 (-45,) energy =    -440.2603347
N           1.4728014    -1.0682372    -0.6339936
H           1.5501091    -0.2440603    -1.2118713
C           2.3910493    -1.2426923     0.3675518
C           5.6540243     1.5589041     0.5272071
H           6.4848547     2.2572483     0.5825310
C           4.9962862     1.1592098     1.6941091
H           5.3156302     1.5460342     2.6580983
C           3.9387368     0.2551363     1.6257876
H           3.4381548    -0.0882693     2.5256603
C           3.5059970    -0.2322800     0.3858567
C           4.1821653     0.1540960    -0.7788642
H           3.8863452    -0.2593046    -1.7399974
C           5.2520627     1.0480308    -0.7076481
H           5.7767077     1.3365925    -1.6145289
O           2.3011594    -2.1261610     1.2142604
C           0.3149339    -1.9290884    -0.7902835
H          -0.6174305    -1.3891829    -0.5831227
H           0.4176087    -2.7438018    -0.0722966
H           0.2651533    -2.3429223    -1.8042217
19
224_C8H9NO_0-2-9-10 (-30,) energy =    -440.2614731
N           1.5501205    -1.1518672    -0.7397683
H           1.6622489    -0.3772212    -1.3773613
C           2.3411802    -1.1843429     0.3794373
C           5.6895068     1.5181796     0.5200648
H           6.5357431     2.1978728     0.5742344
C           5.0516977     1.0986215     1.6906357
H           5.4009173     1.4519656     2.6571008
C           3.9720868     0.2212018     1.6220313
H           3.4765700    -0.1326810     2.5202614
C           3.5034734    -0.2293078     0.3810207
C           4.1575054     0.1819269    -0.7886862
H           3.8405263    -0.2019222    -1.7550373
C           5.2461290     1.0521143    -0.7187348
H           5.7532163     1.3573279    -1.6301173
O           2.1187735    -1.9342492     1.3256563
C           0.3524246    -1.9653399    -0.8517265
H          -0.5497964    -1.4154563    -0.5517864
H           0.4685409    -2.8229006    -0.1881163
H           0.2284919    -2.3136125    -1.8821639
19
224_C8H9NO_0-2-9-10 (-15,) energy =    -440.2614809
N           1.5921535    -1.2271562    -0.7722023
H           1.7581239    -0.5411712    -1.4935116
C           2.2812387    -1.1055864     0.4068884
C           5.7106291     1.5013095     0.5266089
H           6.5721709     2.1615760     0.5797049
C           5.1079433     1.0378854     1.6986855
H           5.4992814     1.3374033     2.6671762
C           4.0054751     0.1896740     1.6289375
H           3.5259536    -0.1888269     2.5254224
C           3.4851898    -0.2010179     0.3878422
C           4.1015075     0.2605583    -0.7842653
H           3.7515242    -0.0653534    -1.7602820
C           5.2085034     1.1064920    -0.7146481
H           5.6830662     1.4499280    -1.6298817
O           1.9528908    -1.7143795     1.4218904
C           0.3716467    -2.0107942    -0.8557210
H          -0.5251479    -1.4038739    -0.6710318
H           0.4204266    -2.7900627    -0.0946115
H           0.2911869    -2.4701138    -1.8459319
19
224_C8H9NO_0-2-9-10 (0,) energy =    -440.2608175
N           1.6195367    -1.2915704    -0.7750832
H           1.9178937    -0.8003554    -1.6030479
C           2.2156022    -1.0067392     0.4231219
C           5.7465684     1.4713135     0.5339299
H           6.6336275     2.0966583     0.5891861
C           5.1786934     0.9519034     1.6993351
H           5.6222269     1.1718099     2.6666769
C           4.0412179     0.1520100     1.6250885
H           3.5809904    -0.2604993     2.5163059
C           3.4536770    -0.1449304     0.3875076
C           4.0320303     0.3805459    -0.7772939
H           3.6213217     0.1640685    -1.7602025
C           5.1708202     1.1826579    -0.7043919
H           5.6087669     1.5795688    -1.6161964
O           1.7842457    -1.4531025     1.4839845
C           0.3893060    -2.0593768    -0.8508708
H          -0.4988764    -1.4144794    -0.8941309
H           0.3237916    -2.6760656     0.0459933
H           0.4035458    -2.7017099    -1.7371618
19
224_C8H9NO_0-2-9-10 (15,) energy =    -440.2614961
N           1.5720256    -1.2405949    -0.7643394
H           2.1640979    -1.1834886    -1.5796927
C           2.1057336    -0.8881227     0.4482137
C           5.7634547     1.3888381     0.5060740
H           6.6907773     1.9544245     0.5411300
C           5.2900350     0.7446056     1.6517839
H           5.8489720     0.8072073     2.5815712
C           4.1001333     0.0222227     1.6055650
H           3.7093864    -0.4797179     2.4843940
C           3.3709851    -0.0726612     0.4127172
C           3.8473572     0.5847579    -0.7307591
H           3.2771890     0.5702561    -1.6559509
C           5.0368765     1.3118548    -0.6834658
H           5.3910591     1.8247739    -1.5735616
O           1.5712608    -1.2005106     1.5090655
C           0.3998507    -2.0960245    -0.8422538
H          -0.1120619    -1.9262371    -1.7938348
H          -0.2677585    -1.8406682    -0.0183700
H           0.6533782    -3.1616573    -0.7576202
19
224_C8H9NO_0-2-9-10 (30,) energy =    -440.2614732
N           1.7790417    -1.6912621    -0.2115630
H           2.4102476    -2.1688611     0.4150541
C           2.0019673    -0.3615555    -0.4598191
C           5.7835446     1.2803310     0.7806486
H           6.7308703     1.7120833     1.0924179
C           4.6370040     2.0769695     0.7183663
H           4.6910422     3.1297492     0.9821737
C           3.4244286     1.5256378     0.3111523
H           2.5275511     2.1319221     0.2361961
C           3.3392346     0.1663263    -0.0170063
C           4.4959756    -0.6240406     0.0315174
H           4.4577642    -1.6669720    -0.2726032
C           5.7128988    -0.0685929     0.4287520
H           6.6063755    -0.6866498     0.4534729
O           1.1683544     0.3598551    -1.0000161
C           0.5077610    -2.3225177    -0.5183095
H           0.6704686    -3.3464439    -0.8698601
H           0.0268506    -1.7389448    -1.3040798
H          -0.1612546    -2.3481179     0.3523750
19
224_C8H9NO_0-2-9-10 (45,) energy =    -440.2603348
N           1.7046519    -1.6169742    -0.0973884
H           2.3019828    -2.0487996     0.5924737
C           2.0267059    -0.3587018    -0.5329802
C           5.7661383     1.2767650     0.8319316
H           6.7069561     1.7055351     1.1666552
C           4.6115235     2.0639122     0.7956186
H           4.6538767     3.1057861     1.1015447
C           3.4073960     1.5189492     0.3557205
H           2.5093415     2.1254222     0.2927042
C           3.3383627     0.1712698    -0.0200830
C           4.5026771    -0.6079207    -0.0028580
H           4.4689838    -1.6404042    -0.3420046
C           5.7123247    -0.0564584     0.4232178
H           6.6127214    -0.6649310     0.4259724
O           1.2928898     0.3105433    -1.2534918
C           0.4662590    -2.2777342    -0.4660725
H           0.6604721    -3.2643737    -0.9026910
H          -0.0299333    -1.6471098    -1.2049308
H          -0.1969966    -2.3990031     0.3994363
19
224_C8H9NO_0-2-9-10 (60,) energy =    -440.2582722
N           1.6288064    -1.5704855     0.0190375
H           2.1982684    -1.9452650     0.7639743
C           2.0385909    -0.4108480    -0.5822801
C           5.7512447     1.2798791     0.7924147
H           6.6877446     1.7209703     1.1231486
C           4.5714016     2.0283993     0.8337886
H           4.5900939     3.0529626     1.1955270
C           3.3718732     1.4690435     0.3981401
H           2.4563950     2.0530426     0.3953566
C           3.3347278     0.1417474    -0.0476853
C           4.5225441    -0.5975465    -0.1081274
H           4.5061147    -1.6142065    -0.4933859
C           5.7270681    -0.0300156     0.3125820
H           6.6456488    -0.6080761     0.2571152
O           1.3888152     0.1685780    -1.4455801
C           0.4080660    -2.2610140    -0.3545772
H           0.6170253    -3.2719138    -0.7252969
H          -0.0624484    -1.6784144    -1.1478692
H          -0.2818460    -2.3321727     0.4947003
19
224_C8H9NO_0-2-9-10 (75,) energy =    -440.2560814
N           1.5815700    -1.5116275     0.0666387
H           2.0757503    -1.7936362     0.9010286
C           2.0990708    -0.4785048    -0.6658869
C           5.7419499     1.2860777     0.8105756
H           6.6614028     1.7436880     1.1657055
C           4.5313306     1.9758355     0.9152249
H           4.5077936     2.9713699     1.3503956
C           3.3518107     1.3945593     0.4518352
H           2.4126145     1.9376631     0.5084488
C           3.3699611     0.1059104    -0.0959145
C           4.5870374    -0.5757906    -0.2129719
H           4.6095234    -1.5651467    -0.6631187
C           5.7692976     0.0128003     0.2403065
H           6.7107297    -0.5212793     0.1425946
O           1.5663350    -0.0298262    -1.6738517
C           0.3653578    -2.2108148    -0.3072450
H           0.5590706    -3.2713485    -0.5088660
H          -0.0131463    -1.7375454    -1.2143634
H          -0.3928747    -2.1339398     0.4809874
19
224_C8H9NO_0-2-9-10 (90,) energy =    -440.2549823
N           1.5418867    -1.4358848     0.1066842
H           1.9503432    -1.5817229     1.0187339
C           2.1658210    -0.5638280    -0.7422478
C           5.7299551     1.2865649     0.8278817
H           6.6295649     1.7595681     1.2124163
C           4.4881722     1.9015665     0.9994590
H           4.4187470     2.8548129     1.5167422
C           3.3325046     1.2957923     0.5048379
H           2.3669453     1.7786222     0.6305932
C           3.4120338     0.0685776    -0.1638748
C           4.6589742    -0.5435277    -0.3366376
H           4.7249263    -1.4913860    -0.8644429
C           5.8136778     0.0644112     0.1580274
H           6.7785985    -0.4156931     0.0183720
O           1.7593654    -0.3074674    -1.8688344
C           0.3291367    -2.1506157    -0.2493640
H           0.4884223    -3.2355805    -0.2386905
H           0.0557097    -1.8396757    -1.2586363
H          -0.4908987    -1.9071389     0.4366096
19
224_C8H9NO_0-2-9-10 (105,) energy =    -440.2558348
N           1.4932011    -1.3390485     0.1338720
H           1.8138833    -1.3314135     1.0914120
C           2.2262602    -0.6500970    -0.7935948
C           5.7136555     1.2834791     0.8442426
H           6.5961311     1.7676790     1.2537684
C           4.4474141     1.8205988     1.0807757
H           4.3404980     2.7255575     1.6730144
C           3.3137764     1.1943545     0.5590987
H           2.3276813     1.6118628     0.7464008
C           3.4425489     0.0386728    -0.2203815
C           4.7142483    -0.4992015    -0.4516395
H           4.8138195    -1.3956093    -1.0574807
C           5.8444691     0.1217104     0.0794726
H           6.8286039    -0.3012349    -0.1037989
O           1.9526212    -0.6226007    -1.9875715
C           0.2926498    -2.0812760    -0.2062241
H           0.4104642    -3.1491762     0.0135191
H           0.1270610    -1.9539299    -1.2769623
H          -0.5786675    -1.7020061     0.3409642
19
224_C8H9NO_0-2-9-10 (120,) energy =    -440.2579601
N           1.4430077    -1.2591709     0.1424647
H           1.6761119    -1.1185960     1.1147559
C           2.2902189    -0.7467991    -0.8033578
C           5.7085707     1.2905946     0.8432908
H           6.5770679     1.7948743     1.2584361
C           4.4250500     1.7471493     1.1460289
H           4.2903479     2.6104507     1.7923143
C           3.3095073     1.0932022     0.6193432
H           2.3100085     1.4498402     0.8559227
C           3.4725754    -0.0043626    -0.2351438
C           4.7627846    -0.4581713    -0.5355627
H           4.8828447    -1.3066147    -1.2028074
C           5.8751076     0.1853991     0.0042740
H           6.8734968    -0.1742714    -0.2297975
O           2.1427390    -0.9248155    -2.0075158
C           0.2546765    -2.0197041    -0.1983739
H           0.3147669    -3.0445932     0.1872839
H           0.1938358    -2.0526640    -1.2871008
H          -0.6501500    -1.5451190     0.1999135
19
224_C8H9NO_0-2-9-10 (135,) energy =    -440.2601181
N           1.3760271    -1.0922635     0.1414283
H           1.5463375    -0.8981499     1.1173036
C           2.3472212    -0.7531106    -0.7634518
C           5.7442263     1.3095522     0.8889034
H           6.6108945     1.8178568     1.3030272
C           4.4586598     1.7049501     1.2618079
H           4.3212424     2.5268150     1.9594160
C           3.3456417     1.0468651     0.7358374
H           2.3449380     1.3653582     1.0175994
C           3.5120704     0.0022520    -0.1828981
C           4.8045220    -0.3838875    -0.5598267
H           4.9203668    -1.1851722    -1.2830293
C           5.9150272     0.2632639    -0.0218632
H           6.9150344    -0.0461017    -0.3137076
O           2.3049481    -1.0768542    -1.9462788
C           0.1988674    -1.8565423    -0.2279459
H           0.2086504    -2.8542094     0.2284274
H           0.2105541    -1.9649793    -1.3132636
H          -0.7185765    -1.3387603     0.0753724
19
224_C8H9NO_0-2-9-10 (150,) energy =    -440.2614095
N           1.2847423    -0.9793806     0.1223617
H           1.3973271    -0.7260777     1.0930935
C           2.3664422    -0.8403045    -0.7083069
C           5.7334759     1.3585517     0.8281467
H           6.5949690     1.9013350     1.2079413
C           4.4491055     1.7006068     1.2545173
H           4.3067058     2.5168931     1.9575994
C           3.3429557     1.0007542     0.7708114
H           2.3445102     1.2932760     1.0858618
C           3.5127795    -0.0417996    -0.1506028
C           4.8035820    -0.3673967    -0.5869806
H           4.9164774    -1.1623786    -1.3170097
C           5.9082655     0.3238764    -0.0949108
H           6.9065896     0.0589811    -0.4326177
O           2.4100773    -1.3410964    -1.8283123
C           0.1356783    -1.7858770    -0.2490852
H           0.2053698    -2.8094021     0.1432802
H           0.1019822    -1.8372875    -1.3379164
H          -0.7843643    -1.3253778     0.1248628
19
224_C8H9NO_0-2-9-10 (165,) energy =    -440.2615235
N           1.2534451    -1.0010020     0.1058464
H           1.2794742    -0.6299604     1.0441409
C           2.4224267    -1.0309873    -0.6099459
C           5.7183535     1.4056539     0.7175153
H           6.5631994     2.0088154     1.0391803
C           4.4400287     1.6752363     1.2094197
H           4.2846807     2.4947545     1.9058954
C           3.3549073     0.9010906     0.7980715
H           2.3618170     1.1527287     1.1609305
C           3.5382082    -0.1542007    -0.1070998
C           4.8215256    -0.4031123    -0.6117446
H           4.9412200    -1.2073908    -1.3299363
C           5.9057898     0.3666496    -0.1975541
H           6.8975581     0.1594450    -0.5903674
O           2.5493124    -1.7186831    -1.6196137
C           0.1420670    -1.8691813    -0.2449428
H           0.2518192    -2.8786372     0.1744030
H           0.1033882    -1.9563674    -1.3315057
H          -0.7915209    -1.4313652     0.1199885
19
224_C8H9NO_0-2-9-10 (180,) energy =    -440.2608204
N           1.2652769    -1.0315263     0.1457256
H           1.0983951    -0.2618257     0.7746587
C           2.4681246    -1.1182704    -0.5005583
C           5.7254283     1.4618242     0.6639983
H           6.5614659     2.0994568     0.9387055
C           4.5123104     1.5664799     1.3463498
H           4.4013959     2.2827033     2.1559406
C           3.4384605     0.7483412     0.9956052
H           2.5156725     0.8463990     1.5617036
C           3.5612582    -0.1823655    -0.0465525
C           4.7871437    -0.2839518    -0.7187408
H           4.8681531    -1.0143099    -1.5163786
C           5.8603001     0.5316877    -0.3690066
H           6.8033040     0.4414886    -0.9013848
O           2.6671037    -1.9396194    -1.3930551
C           0.1270145    -1.8427420    -0.2477920
H          -0.4366872    -2.1525432     0.6380821
H           0.5078202    -2.7240453    -0.7647192
H          -0.5479070    -1.3055580    -0.9278363
