22
244_C8H10N2O2_17-0-2-11 (-165,) energy =    -570.8362813
N           1.1358007    -1.0241132     0.3244984
H           1.1422302    -0.2942741     1.0228091
C           2.2870223    -1.2456530    -0.3757169
C           5.7221912     1.0152654     0.8386270
H           6.6204092     1.5663298     1.0933668
C           5.4289475     0.9232220    -0.5793415
N           4.2406150     0.1970920    -0.9003143
C           3.8964314     0.1196433    -2.3295844
H           4.5316844     0.8395551    -2.8414839
H           2.8427621     0.3673777    -2.4745814
H           4.0773795    -0.8864781    -2.7098783
C           3.4507617    -0.3821940     0.0608322
C           3.7582284    -0.2713709     1.3945579
H           3.1414608    -0.7721602     2.1310106
C           4.9247235     0.4420079     1.7819989
H           5.1769580     0.5223870     2.8364652
O           2.3994623    -2.0983757    -1.2488819
C           0.0126014    -1.9469862     0.2881338
H          -0.9264313    -1.4057743     0.1336461
H          -0.0587677    -2.5266251     1.2169008
H           0.1744308    -2.6296968    -0.5468237
O           6.1161045     1.4240586    -1.4655005
22
244_C8H10N2O2_17-0-2-11 (-150,) energy =    -570.8338611
N           1.0591142    -0.9492183     0.2116195
H           1.0959508    -0.2348986     0.9267128
C           2.2242645    -1.1652549    -0.4779886
C           5.7038553     0.9782396     0.8168629
H           6.6177506     1.4918646     1.0931640
C           5.4451446     0.8893452    -0.6083540
N           4.2342348     0.2170048    -0.9571077
C           3.9263580     0.1506780    -2.3950702
H           4.5582030     0.8892255    -2.8843804
H           2.8714857     0.3749154    -2.5619251
H           4.1409227    -0.8455265    -2.7852137
C           3.3962393    -0.3271559    -0.0159566
C           3.6730330    -0.2212674     1.3251626
H           3.0194174    -0.6924119     2.0492399
C           4.8580780     0.4441974     1.7407541
H           5.0850097     0.5190035     2.8013229
O           2.3473045    -2.0215348    -1.3450858
C           0.0760598    -2.0116405     0.3861531
H          -0.9350344    -1.5944233     0.3987075
H           0.2457346    -2.5688012     1.3167676
H           0.1689981    -2.6946048    -0.4589828
O           6.1779230     1.3516391    -1.4786204
22
244_C8H10N2O2_17-0-2-11 (-135,) energy =    -570.8295034
N           1.0005019    -0.8595655     0.1226827
H           1.0477169    -0.1253648     0.8188583
C           2.1788157    -1.0686287    -0.5611162
C           5.7231542     0.8589321     0.8859680
H           6.6565247     1.3102253     1.2030148
C           5.5193134     0.7905715    -0.5495424
N           4.2821032     0.2030374    -0.9524385
C           4.0324651     0.1667100    -2.4027003
H           4.7057482     0.8921980    -2.8551049
H           2.9926032     0.4235548    -2.6091092
H           4.2351917    -0.8291858    -2.8003964
C           3.3713453    -0.2901311    -0.0507719
C           3.5976283    -0.2037362     1.3015281
H           2.8850871    -0.6306679     1.9965798
C           4.8056209     0.3800026     1.7704834
H           4.9912728     0.4370689     2.8401025
O           2.3004265    -1.9132414    -1.4381811
C           0.1555652    -1.9929621     0.4974757
H          -0.8844234    -1.6697420     0.5966509
H           0.4830509    -2.4462994     1.4427307
H           0.2176008    -2.7393936    -0.2954702
O           6.3179655     1.2040258    -1.3855373
22
244_C8H10N2O2_17-0-2-11 (-120,) energy =    -570.8235972
N           0.9071198    -0.8167585     0.0722584
H           0.9579956    -0.0484596     0.7329861
C           2.0899887    -0.9834347    -0.6357952
C           5.6769954     0.7885551     0.9002034
H           6.6225743     1.1945150     1.2414942
C           5.5026907     0.7384247    -0.5401404
N           4.2496097     0.2121461    -0.9754651
C           4.0351161     0.2039420    -2.4318138
H           4.7182712     0.9381869    -2.8546540
H           3.0004208     0.4614057    -2.6585665
H           4.2516123    -0.7828654    -2.8453168
C           3.2969814    -0.2475919    -0.0985476
C           3.4957741    -0.1767714     1.2594687
H           2.7487731    -0.5703268     1.9374377
C           4.7181959     0.3473617     1.7600130
H           4.8808835     0.3897774     2.8339781
O           2.2025908    -1.7969873    -1.5406751
C           0.2553408    -1.9968950     0.6511649
H          -0.7887950    -1.7669978     0.8798724
H           0.7585735    -2.3360583     1.5674422
H           0.2807441    -2.8014342    -0.0855637
O           6.3385104     1.1192582    -1.3547943
22
244_C8H10N2O2_17-0-2-11 (-105,) energy =    -570.8167282
N           0.8088590    -0.8260101     0.0066004
H           0.8339284    -0.0244028     0.6314631
C           2.0032293    -0.9154410    -0.7223293
C           5.6026216     0.7050078     0.9505351
H           6.5519150     1.0692205     1.3268271
C           5.4758575     0.6719459    -0.4954263
N           4.2185847     0.2017870    -0.9791837
C           4.0572554     0.2299415    -2.4426628
H           4.7737261     0.9556340    -2.8231896
H           3.0386308     0.5172011    -2.7014862
H           4.2662490    -0.7518998    -2.8713670
C           3.2173747    -0.2281779    -0.1394942
C           3.3724217    -0.1693529     1.2254503
H           2.5858921    -0.5273178     1.8765650
C           4.5963055     0.3010677     1.7730666
H           4.7212904     0.3318357     2.8524250
O           2.1106695    -1.6616531    -1.6815502
C           0.3765299    -2.0242911     0.7426835
H          -0.6429175    -1.8729736     1.1071738
H           1.0325632    -2.2584307     1.5934987
H           0.3742702    -2.8742172     0.0572424
O           6.3547487     1.0250766    -1.2763967
22
244_C8H10N2O2_17-0-2-11 (-90,) energy =    -570.8184312
N           0.9001889    -0.7978273     0.4833179
H          -0.0247433    -0.4789798     0.1899755
C           1.7768075    -0.2888512    -0.5097835
C           5.7248988     0.6645684     0.8308494
H           6.7313558     0.9462823     1.1196282
C           5.5293339     0.4250130    -0.5881147
N           4.2063600     0.0459974    -0.9600579
C           4.0202054    -0.2685227    -2.3863800
H           5.0127496    -0.4437707    -2.7969274
H           3.5466003     0.5650323    -2.9078722
H           3.3928716    -1.1529010    -2.4980584
C           3.1820531    -0.0465375    -0.0401714
C           3.4102940     0.1785186     1.2965856
H           2.5787279     0.1067503     1.9831087
C           4.7113007     0.5451357     1.7318545
H           4.8877919     0.7341950     2.7876534
O           1.3668557     0.1059835    -1.5896974
C           0.8426601    -2.2723416     0.5765297
H           0.5304247    -2.7434858    -0.3657547
H           0.1371389    -2.5474464     1.3648587
H           1.8280026    -2.6594856     0.8527395
O           6.4178881     0.5202405    -1.4312959
22
244_C8H10N2O2_17-0-2-11 (-75,) energy =    -570.8235769
N           0.8579256    -0.8007719     0.3817177
H          -0.0829579    -0.5839884     0.0534943
C           1.7342870    -0.2131761    -0.5429568
C           5.7083081     0.5733741     0.8366028
H           6.7228270     0.8140411     1.1339938
C           5.5145985     0.3428476    -0.5835541
N           4.1782140     0.0210030    -0.9643875
C           3.9793521    -0.2670572    -2.3940655
H           4.9621261    -0.4853870    -2.8074171
H           3.5456555     0.5949815    -2.9039415
H           3.3104287    -1.1194797    -2.5165487
C           3.1466218    -0.0345315    -0.0531986
C           3.3710495     0.1818179     1.2847581
H           2.5332774     0.1456426     1.9674572
C           4.6828026     0.4969043     1.7292200
H           4.8587831     0.6807404     2.7860953
O           1.3341709     0.3035963    -1.5755364
C           0.9645890    -2.2503543     0.6278843
H           0.7164586    -2.8464265    -0.2608618
H           0.2853162    -2.5238471     1.4397042
H           1.9832860    -2.4939597     0.9404343
O           6.4103045     0.4011545    -1.4224887
22
244_C8H10N2O2_17-0-2-11 (-60,) energy =    -570.8275231
N           0.8206700    -0.8145606     0.2395767
H          -0.1183660    -0.6706353    -0.1263322
C           1.7050905    -0.1256169    -0.5811014
C           5.6792831     0.5240919     0.8712407
H           6.6957257     0.7321324     1.1860135
C           5.5014468     0.3028080    -0.5519775
N           4.1598607     0.0270160    -0.9535072
C           3.9636574    -0.2347007    -2.3881682
H           4.9444284    -0.4623308    -2.8011282
H           3.5436984     0.6422429    -2.8838063
H           3.2828554    -1.0760517    -2.5270553
C           3.1153261    -0.0023754    -0.0592349
C           3.3231835     0.2050097     1.2820080
H           2.4749647     0.1933696     1.9537169
C           4.6371757     0.4795643     1.7471314
H           4.8024451     0.6570390     2.8068728
O           1.3260803     0.5028790    -1.5598015
C           1.0480496    -2.2152693     0.6192302
H           0.8749997    -2.9060884    -0.2170438
H           0.3751024    -2.4795138     1.4397392
H           2.0752069    -2.3378216     0.9681030
O           6.4097979     0.3336305    -1.3786213
22
244_C8H10N2O2_17-0-2-11 (-45,) energy =    -570.8298356
N           0.8068922    -0.8528828     0.1151620
H          -0.1263364    -0.7480862    -0.2732356
C           1.6903985    -0.0642801    -0.5905599
C           5.6726900     0.4679377     0.8894426
H           6.6928526     0.6472916     1.2096695
C           5.4959512     0.2506616    -0.5341123
N           4.1473903     0.0154399    -0.9410596
C           3.9405116    -0.2264865    -2.3773339
H           4.9185183    -0.4446043    -2.8016606
H           3.5103229     0.6556279    -2.8544536
H           3.2634929    -1.0709416    -2.5222724
C           3.1001669     0.0122710    -0.0519219
C           3.3058839     0.2154997     1.2896602
H           2.4556750     0.2264338     1.9599193
C           4.6251086     0.4544326     1.7602399
H           4.7907837     0.6286442     2.8204998
O           1.3234828     0.6580277    -1.5087760
C           1.0970791    -2.1939065     0.6242532
H           0.9537918    -2.9644029    -0.1452254
H           0.4386925    -2.4161979     1.4694143
H           2.1288548    -2.2376674     0.9744625
O           6.4075265     0.2536522    -1.3577320
22
244_C8H10N2O2_17-0-2-11 (-30,) energy =    -570.8307920
N           0.7966208    -0.9148485     0.0807285
H          -0.1392760    -0.8231098    -0.3006192
C           1.6568877    -0.0272877    -0.5115594
C           5.6588228     0.4380788     0.9401217
H           6.6839268     0.6023067     1.2525345
C           5.4643633     0.2427245    -0.4840249
N           4.1080006     0.0295382    -0.8783943
C           3.8765742    -0.1790888    -2.3158442
H           4.8480139    -0.3788936    -2.7636063
H           3.4290128     0.7108394    -2.7614755
H           3.2047123    -1.0269609    -2.4683603
C           3.0714697     0.0224896     0.0217651
C           3.2931218     0.2045805     1.3633905
H           2.4522957     0.2126811     2.0461858
C           4.6202217     0.4232488     1.8218838
H           4.7996887     0.5807208     2.8825341
O           1.2793387     0.7711688    -1.3611985
C           1.1157666    -2.1934805     0.7056636
H           0.9137074    -3.0313656     0.0258838
H           0.5216549    -2.3314489     1.6153790
H           2.1704743    -2.2140441     0.9792896
O           6.3657353     0.2465428    -1.3188185
22
244_C8H10N2O2_17-0-2-11 (-15,) energy =    -570.8309962
N           0.8327132    -0.9976187    -0.0479949
H          -0.1077473    -0.9130506    -0.4169908
C           1.6674596    -0.0383733    -0.5471899
C           5.6587815     0.4278826     0.9339392
H           6.6821163     0.5910919     1.2525524
C           5.4729121     0.2422915    -0.4925779
N           4.1182545     0.0330576    -0.8958718
C           3.8885965    -0.1628082    -2.3353983
H           4.8658740    -0.3099895    -2.7905967
H           3.3954436     0.7120108    -2.7618899
H           3.2577639    -1.0405452    -2.4980409
C           3.0776907     0.0139761    -0.0008457
C           3.2919083     0.1848157     1.3430278
H           2.4485627     0.1835025     2.0231704
C           4.6159621     0.4034172     1.8105549
H           4.7898966     0.5518342     2.8734586
O           1.2826687     0.7925875    -1.3626377
C           1.1428849    -2.1874954     0.7310338
H           0.7792041    -3.0833732     0.2147673
H           0.6819117    -2.1478771     1.7255979
H           2.2220029    -2.2741789     0.8569429
O           6.3793486     0.2516743    -1.3218310
22
244_C8H10N2O2_17-0-2-11 (0,) energy =    -570.8307353
N           1.2074422    -1.8559772    -0.2353273
H           0.7896340    -2.7419021    -0.4965594
C           2.5620413    -1.8538002    -0.4055058
C           4.9894977     1.4300564     0.8869862
H           5.6568607     2.2363682     1.1695740
C           4.9926144     1.0832323    -0.5212416
N           4.1092304     0.0172356    -0.8747247
C           4.0805707    -0.3643655    -2.2946865
H           4.6088139     0.4154306    -2.8395261
H           3.0465166    -0.4368768    -2.6413032
H           4.5714131    -1.3286748    -2.4367427
C           3.3270365    -0.6292703     0.0492326
C           3.3448805    -0.2701519     1.3723326
H           2.7311945    -0.8104622     2.0834284
C           4.2046732     0.7807405     1.7921324
H           4.2315240     1.0622240     2.8419490
O           3.1522617    -2.8066516    -0.9025402
C           0.3346734    -0.8397088     0.3325701
H           0.0658959    -1.0598698     1.3739807
H          -0.5854689    -0.7796787    -0.2576666
H           0.8281873     0.1320562     0.3028957
O           5.6783206     1.6376265    -1.3766882
22
244_C8H10N2O2_17-0-2-11 (15,) energy =    -570.8309992
N           1.2284805    -1.9175288    -0.0824265
H           0.8151798    -2.8044043    -0.3477047
C           2.5625292    -1.8647885    -0.3717478
C           4.9945233     1.4218948     0.9018590
H           5.6645908     2.2269634     1.1816178
C           4.9918957     1.0736314    -0.5062537
N           4.1053561     0.0096810    -0.8568133
C           4.0723666    -0.3690547    -2.2776319
H           4.5800151     0.4227566    -2.8247889
H           3.0376021    -0.4629633    -2.6160336
H           4.5816473    -1.3224981    -2.4273740
C           3.3262693    -0.6357973     0.0707100
C           3.3494447    -0.2753969     1.3938987
H           2.7370597    -0.8155156     2.1059753
C           4.2119384     0.7745009     1.8102172
H           4.2433086     1.0559692     2.8599064
O           3.1434087    -2.7981468    -0.9147256
C           0.3252005    -0.8563167     0.3377892
H          -0.0762265    -1.0431917     1.3414044
H          -0.5139719    -0.7752443    -0.3625868
H           0.8565564     0.0952076     0.3531229
O           5.6759935     1.6264478    -1.3639998
22
244_C8H10N2O2_17-0-2-11 (30,) energy =    -570.8307922
N           1.2708479    -1.9512577     0.0089518
H           0.8648417    -2.8355429    -0.2791332
C           2.5787923    -1.8586229    -0.3902636
C           5.0258960     1.4167559     0.8828887
H           5.6988488     2.2195530     1.1622338
C           5.0023274     1.0871801    -0.5295276
N           4.1120528     0.0265217    -0.8808005
C           4.0578816    -0.3293596    -2.3068948
H           4.5412296     0.4801413    -2.8501600
H           3.0189924    -0.4367939    -2.6274206
H           4.5811450    -1.2705805    -2.4835063
C           3.3495597    -0.6339949     0.0503566
C           3.3927714    -0.2909298     1.3779966
H           2.7930050    -0.8440320     2.0904547
C           4.2591659     0.7554904     1.7946542
H           4.3064475     1.0227636     2.8474345
O           3.1402055    -2.7717474    -0.9843611
C           0.3324755    -0.8651220     0.2681104
H          -0.2782758    -1.0915234     1.1486295
H          -0.3351074    -0.7018237    -0.5878118
H           0.8827785     0.0555919     0.4609049
O           5.6729888     1.6525410    -1.3897359
22
244_C8H10N2O2_17-0-2-11 (45,) energy =    -570.8298356
N           1.3198491    -1.9701965     0.0575482
H           0.9271500    -2.8612119    -0.2333628
C           2.5819613    -1.8265684    -0.4781434
C           5.0669552     1.4012208     0.8403844
H           5.7478689     2.1928297     1.1322014
C           5.0359523     1.0979069    -0.5780628
N           4.1345156     0.0536616    -0.9475437
C           4.0685673    -0.2630132    -2.3826672
H           4.5367756     0.5671230    -2.9078153
H           3.0282651    -0.3755276    -2.6950387
H           4.6017894    -1.1915763    -2.5930872
C           3.3702005    -0.6193922    -0.0255482
C           3.4209703    -0.3009407     1.3084220
H           2.8200529    -0.8649466     2.0105743
C           4.2973605     0.7299688     1.7420724
H           4.3500963     0.9766622     2.7995741
O           3.1006380    -2.7024480    -1.1587945
C           0.3348563    -0.8960992     0.1910819
H          -0.3699321    -1.1416416     0.9911861
H          -0.2290120    -0.7391055    -0.7382717
H           0.8399732     0.0337486     0.4544492
O           5.7099846     1.6738921    -1.4285034
22
244_C8H10N2O2_17-0-2-11 (60,) energy =    -570.8275231
N           1.3369281    -1.9556902     0.1865272
H           0.9680955    -2.8685498    -0.0723987
C           2.5400737    -1.7790049    -0.4854702
C           5.1186010     1.3720056     0.8366262
H           5.8211252     2.1437011     1.1306739
C           5.0837220     1.0700581    -0.5824402
N           4.1531015     0.0549288    -0.9574026
C           4.0773483    -0.2418557    -2.3966456
H           4.5373954     0.5981240    -2.9134195
H           3.0362942    -0.3582496    -2.7020966
H           4.6158401    -1.1627519    -2.6269417
C           3.3686020    -0.6004696    -0.0372640
C           3.4239849    -0.2826312     1.2972993
H           2.8060190    -0.8322812     1.9950149
C           4.3266198     0.7233185     1.7350283
H           4.3818052     0.9677928     2.7928796
O           2.9875091    -2.6248984    -1.2475561
C           0.2901888    -0.9250812     0.1838430
H          -0.4521989    -1.1641590     0.9504074
H          -0.2161591    -0.8492356    -0.7879546
H           0.7302102     0.0441527     0.4262273
O           5.7785673     1.6274482    -1.4285480
22
244_C8H10N2O2_17-0-2-11 (75,) energy =    -570.8235769
N           1.3451036    -1.9051536     0.3249154
H           1.0266377    -2.8522389     0.1209638
C           2.4808521    -1.6996320    -0.4726652
C           5.1806002     1.3615396     0.8139096
H           5.9109303     2.1102883     1.0995738
C           5.1286047     1.0524242    -0.6035721
N           4.1608536     0.0709374    -0.9705596
C           4.0617450    -0.2125114    -2.4115096
H           4.5306406     0.6237847    -2.9264065
H           3.0159591    -0.3096924    -2.7047131
H           4.5826221    -1.1392742    -2.6584449
C           3.3601842    -0.5562359    -0.0415209
C           3.4328981    -0.2305473     1.2911243
H           2.7996027    -0.7560576     1.9925688
C           4.3700090     0.7471947     1.7193361
H           4.4369760     0.9962823     2.7753763
O           2.8364236    -2.5116943    -1.3137904
C           0.2122462    -0.9717401     0.1883954
H          -0.5397375    -1.2125999     0.9445490
H          -0.2533503    -1.0192253    -0.8054382
H           0.5573328     0.0501584     0.3656330
O           5.8400423     1.5820269    -1.4537943
22
244_C8H10N2O2_17-0-2-11 (90,) energy =    -570.8184312
N           1.3545464    -1.8525298     0.4211534
H           1.1205300    -2.8360517     0.2757826
C           2.4397019    -1.6169334    -0.4624224
C           5.2637764     1.3235918     0.8304723
H           6.0235624     2.0414745     1.1187101
C           5.2033194     1.0181681    -0.5880310
N           4.1963388     0.0808527    -0.9617617
C           4.0829900    -0.1770244    -2.4069669
H           4.5911000     0.6441675    -2.9088396
H           3.0341218    -0.2210255    -2.7003442
H           4.5602597    -1.1226098    -2.6699523
C           3.3689844    -0.5183045    -0.0341566
C           3.4510580    -0.1945536     1.2993033
H           2.7924022    -0.6946677     1.9950226
C           4.4244910     0.7442561     1.7323754
H           4.4960996     0.9906706     2.7886698
O           2.7007569    -2.3791159    -1.3795352
C           0.1326488    -1.0686218     0.1407184
H          -0.6318424    -1.3344215     0.8754360
H          -0.2617179    -1.2475193    -0.8691518
H           0.3504699    -0.0018405     0.2484357
O           5.9407067     1.5207501    -1.4325564
22
244_C8H10N2O2_17-0-2-11 (105,) energy =    -570.8167283
N           1.4224128    -1.9774141    -0.0266074
H           1.9877507    -2.2758156     0.7639573
C           2.1511099    -1.1058889    -0.8482024
C           5.2969601     1.2477813     0.8674148
H           6.0855609     1.8904838     1.2421695
C           5.4069280     0.8765410    -0.5318919
N           4.3702732     0.0214090    -1.0113367
C           4.5119582    -0.4156203    -2.4104649
H           5.5646562    -0.3108301    -2.6666009
H           3.9092232     0.2098794    -3.0714690
H           4.1881271    -1.4507770    -2.5138692
C           3.3222454    -0.3858766    -0.2187560
C           3.2611488    -0.0220044     1.1058038
H           2.4228788    -0.3323316     1.7154925
C           4.2693846     0.8185385     1.6498634
H           4.2098990     1.1168305     2.6934472
O           1.7557257    -0.7978761    -1.9605655
C           0.1046029    -1.5203208     0.4413406
H           0.1743632    -0.6889211     1.1575866
H          -0.4183003    -2.3565951     0.9127341
H          -0.4787259    -1.1920272    -0.4213104
O           6.3138171     1.2388569    -1.2757747
22
244_C8H10N2O2_17-0-2-11 (120,) energy =    -570.8235971
N           1.4343671    -1.8985833     0.0163283
H           1.9699749    -2.1547277     0.8390914
C           2.1043455    -0.9852451    -0.7868501
C           5.3580916     1.2388972     0.8958972
H           6.1773828     1.8467040     1.2629527
C           5.4481026     0.8468489    -0.4989817
N           4.3691103     0.0381163    -0.9662655
C           4.4719223    -0.4130710    -2.3637255
H           5.5229264    -0.3478897    -2.6389706
H           3.8785555     0.2284058    -3.0180008
H           4.1105620    -1.4376186    -2.4531385
C           3.3071831    -0.3101078    -0.1669384
C           3.2611684     0.0744422     1.1516829
H           2.4036664    -0.1821330     1.7611056
C           4.3101471     0.8720994     1.6836158
H           4.2661450     1.1881360     2.7227776
O           1.6671501    -0.6193026    -1.8677476
C           0.0212473    -1.6620738     0.3323574
H          -0.1034936    -0.8883326     1.1028134
H          -0.4398141    -2.5907815     0.6791823
H          -0.4870571    -1.3405990    -0.5781290
O           6.3691142     1.1560950    -1.2495843
22
244_C8H10N2O2_17-0-2-11 (135,) energy =    -570.8295033
N           1.4918440    -1.7818023     0.0638459
H           2.0064186    -2.0100598     0.9059031
C           2.1080867    -0.8481570    -0.7412583
C           5.5013099     1.2482867     0.8280703
H           6.3590036     1.8187442     1.1661645
C           5.5357997     0.8353137    -0.5630350
N           4.4050255     0.0765931    -0.9917779
C           4.4412318    -0.3944928    -2.3859150
H           5.4794614    -0.3421651    -2.7079041
H           3.8215612     0.2415964    -3.0203647
H           4.0698754    -1.4184756    -2.4437687
C           3.3505450    -0.2100216    -0.1601531
C           3.3555237     0.1946707     1.1526998
H           2.4990257    -0.0088065     1.7836473
C           4.4568416     0.9448182     1.6469782
H           4.4556354     1.2764588     2.6822659
O           1.6293378    -0.4582859    -1.7977705
C           0.0388697    -1.7664514     0.2302690
H          -0.2710629    -1.0613541     1.0132450
H          -0.3203886    -2.7669869     0.4866214
H          -0.4082754    -1.4645244    -0.7177148
O           6.4516613     1.0882072    -1.3408046
22
244_C8H10N2O2_17-0-2-11 (150,) energy =    -570.8338611
N           1.4828727    -1.6877437     0.1811962
H           1.9882445    -1.8980738     1.0316839
C           2.0611020    -0.7572127    -0.6431555
C           5.6042488     1.1959844     0.7745573
H           6.5033405     1.7225834     1.0740321
C           5.5762553     0.7445449    -0.6043869
N           4.3892030     0.0460213    -0.9825536
C           4.3530310    -0.4604430    -2.3642717
H           5.3768403    -0.4379506    -2.7322350
H           3.7160362     0.1714697    -2.9852065
H           3.9607735    -1.4787135    -2.3786890
C           3.3452957    -0.1564898    -0.1145724
C           3.4087114     0.2834669     1.1849795
H           2.5579270     0.1487204     1.8418623
C           4.5663979     0.9782671     1.6287025
H           4.6138845     1.3375956     2.6536536
O           1.5514264    -0.3703436    -1.6875575
C           0.0384428    -1.8846883     0.2026295
H          -0.4428935    -1.2557659     0.9629262
H          -0.1981451    -2.9334290     0.4042999
H          -0.3500615    -1.6145079    -0.7799159
O           6.4846098     0.9191803    -1.4121245
22
244_C8H10N2O2_17-0-2-11 (165,) energy =    -570.8362833
N           1.4487868    -1.5637314     0.2704077
H           1.9524879    -1.8067259     1.1115438
C           2.0177102    -0.6461384    -0.5660157
C           5.6393546     1.1980210     0.8011681
H           6.5619430     1.6897695     1.0881665
C           5.5867408     0.7230824    -0.5688098
N           4.3674503     0.0724907    -0.9319668
C           4.3015811    -0.4539255    -2.3052026
H           5.3191983    -0.4465252    -2.6903544
H           3.6577811     0.1739150    -2.9228043
H           3.9010221    -1.4694536    -2.2977343
C           3.3205786    -0.0695705    -0.0559932
C           3.4070930     0.3914987     1.2346103
H           2.5522589     0.3040674     1.8942860
C           4.5960644     1.0419383     1.6623895
H           4.6635024     1.4175658     2.6803951
O           1.5076731    -0.2742724    -1.6166269
C           0.0663979    -1.9920334     0.1292367
H          -0.5709636    -1.5481611     0.9041235
H          -0.0076884    -3.0826336     0.1895430
H          -0.2813775    -1.6626269    -0.8505336
O           6.4997886     0.8413959    -1.3816475
22
244_C8H10N2O2_17-0-2-11 (180,) energy =    -570.8368279
N           1.1425881    -1.1377627     0.4678729
H           1.1180448    -0.3717560     1.1255746
C           2.2731077    -1.3019050    -0.2800493
C           5.6748078     1.0083719     0.9382312
H           6.5620063     1.5772248     1.1924999
C           5.3598788     0.9459736    -0.4762837
N           4.1851333     0.1971979    -0.7980557
C           3.8205493     0.1530219    -2.2237613
H           4.4135147     0.9188184    -2.7196026
H           2.7545007     0.3545494    -2.3448604
H           4.0422263    -0.8291692    -2.6433651
C           3.4295448    -0.4307700     0.1605502
C           3.7583890    -0.3489993     1.4913720
H           3.1683459    -0.8879421     2.2226191
C           4.9102152     0.3873122     1.8786804
H           5.1788790     0.4460016     2.9305120
O           2.3686219    -2.1039529    -1.2018147
C          -0.0776545    -1.8824209     0.2054953
H          -0.8443068    -1.2466342    -0.2540466
H          -0.4767884    -2.3057130     1.1332080
H           0.1704835    -2.6898399    -0.4842040
O           6.0184782     1.4881392    -1.3599390
