22
244_C8H10N2O2_0-2-11-12 (-165,) energy =    -570.8301997
N           1.5438814    -1.3396079    -0.3888117
H           2.3611619    -1.8930663    -0.5980264
C           1.6885791    -0.2223678     0.3886065
C           5.5256038     1.5933876     1.1372802
H           6.5028554     2.0178896     1.3377494
C           5.4611001     0.6757615     0.0203983
N           4.1616604     0.1464463    -0.2644931
C           4.0946942    -0.5685625    -1.5462284
H           4.8949436    -0.1758570    -2.1725212
H           3.1252594    -0.4114017    -2.0154562
H           4.2886005    -1.6419879    -1.4216224
C           3.0628941     0.4118379     0.5396515
C           3.1710585     1.3098419     1.5711109
H           2.2870728     1.5037617     2.1630336
C           4.4205305     1.9108713     1.8675532
H           4.4905669     2.6155323     2.6922421
O           0.7235386     0.2861242     0.9496341
C           0.2565366    -2.0233223    -0.4209877
H           0.0260557    -2.5164121     0.5318245
H           0.2756223    -2.7682282    -1.2200982
H          -0.5294985    -1.2937839    -0.6219876
O           6.4170668     0.3687257    -0.6898177
22
244_C8H10N2O2_0-2-11-12 (-150,) energy =    -570.8321681
N           1.5771594    -1.3643528    -0.2804724
H           2.4191992    -1.9189332    -0.3387482
C           1.6488382    -0.1254648     0.2941344
C           5.5152367     1.5234964     1.2024785
H           6.5040132     1.8992475     1.4404581
C           5.4371077     0.6570646     0.0451513
N           4.1254928     0.1916110    -0.2803968
C           4.0457610    -0.4641969    -1.5939668
H           4.7844704     0.0094501    -2.2406303
H           3.0449700    -0.3573509    -2.0066272
H           4.3131077    -1.5258334    -1.5290854
C           3.0231991     0.4782169     0.5060589
C           3.1398414     1.3247610     1.5780897
H           2.2509843     1.5367288     2.1571763
C           4.4087590     1.8568038     1.9248678
H           4.4921618     2.5221020     2.7804678
O           0.6458449     0.4788889     0.6567702
C           0.3002826    -2.0613208    -0.3558082
H          -0.0305229    -2.4230927     0.6260325
H           0.3999662    -2.9087566    -1.0382720
H          -0.4579309    -1.3748790    -0.7362738
O           6.3888655     0.3402299    -0.6659627
22
244_C8H10N2O2_0-2-11-12 (-135,) energy =    -570.8329618
N           1.6251827    -1.4572995    -0.1787751
H           2.4685461    -2.0095966    -0.1118329
C           1.6874390    -0.1289167     0.1369537
C           5.6064349     1.3474930     1.0881426
H           6.6109735     1.6751497     1.3311411
C           5.4874914     0.5164008    -0.0917773
N           4.1578899     0.1051038    -0.4107114
C           4.0377291    -0.5472285    -1.7231214
H           4.7107333    -0.0362583    -2.4126145
H           3.0106242    -0.4907473    -2.0764841
H           4.3586755    -1.5934959    -1.6737969
C           3.0719290     0.4357901     0.3757093
C           3.2233862     1.2468876     1.4692798
H           2.3466765     1.4932279     2.0541039
C           4.5178274     1.7095497     1.8249042
H           4.6346119     2.3470878     2.6976187
O           0.6913112     0.5686877     0.2830093
C           0.3522832    -2.1517821    -0.2942767
H           0.0132248    -2.5515009     0.6702193
H           0.4475898    -2.9748971    -1.0079070
H          -0.3940389    -1.4415225    -0.6520414
O           6.4173398     0.1787219    -0.8219466
22
244_C8H10N2O2_0-2-11-12 (-120,) energy =    -570.8327533
N           1.6141913    -1.5224907    -0.1725019
H           2.4357610    -2.0609819     0.0646713
C           1.6964899    -0.1592449    -0.1367929
C           5.6240060     1.2650105     0.8535968
H           6.6324555     1.5838794     1.0919767
C           5.4891765     0.4517185    -0.3367120
N           4.1514342     0.0564842    -0.6432814
C           3.9942511    -0.6327567    -1.9310574
H           4.7168121    -0.2040044    -2.6255662
H           2.9798740    -0.4990083    -2.3041628
H           4.2176081    -1.7010756    -1.8393910
C           3.0796405     0.3855218     0.1564062
C           3.2438035     1.1668430     1.2685611
H           2.3770863     1.4178514     1.8671422
C           4.5471180     1.6122630     1.6155594
H           4.6809978     2.2286977     2.5009618
O           0.7340858     0.5850818    -0.2700688
C           0.3520108    -2.2216257    -0.3508445
H           0.0118436    -2.6814485     0.5850778
H           0.4487559    -3.0003372    -1.1147162
H          -0.3883283    -1.4877260    -0.6708714
O           6.4092285     0.1085379    -1.0764758
22
244_C8H10N2O2_0-2-11-12 (-105,) energy =    -570.8325301
N           1.5551543    -1.5117121    -0.0167260
H           2.3074937    -2.0121337     0.4360800
C           1.6999380    -0.1681845    -0.2038634
C           5.5797449     1.3259300     0.8696039
H           6.5768867     1.6817902     1.1031155
C           5.4549880     0.5758647    -0.3631062
N           4.1277964     0.1368825    -0.6589588
C           3.9463375    -0.5374136    -1.9508613
H           4.7563827    -0.2105328    -2.6013593
H           2.9795755    -0.2642902    -2.3761883
H           4.0085141    -1.6253472    -1.8427503
C           3.0663631     0.3672949     0.1831838
C           3.2192509     1.0798971     1.3411378
H           2.3598538     1.2589390     1.9760160
C           4.5103188     1.5668304     1.6815341
H           4.6404843     2.1337360     2.6000768
O           0.8220861     0.5637704    -0.6407718
C           0.3121268    -2.2134156    -0.2952378
H          -0.1834466    -2.5324833     0.6294665
H           0.4979110    -3.0928518    -0.9209087
H          -0.3429803    -1.5219203    -0.8262902
O           6.3755400     0.3142239    -1.1344602
22
244_C8H10N2O2_0-2-11-12 (-90,) energy =    -570.8332496
N           1.5496105    -1.5527677     0.0704433
H           2.2067537    -2.0036191     0.6921876
C           1.8196860    -0.2769340    -0.3255673
C           5.6660295     1.2709000     0.7765853
H           6.6515862     1.6636448     0.9997321
C           5.5380638     0.5969931    -0.4999820
N           4.2252806     0.1043047    -0.7797135
C           4.0243617    -0.5410277    -2.0837149
H           4.9199851    -0.3498308    -2.6719211
H           3.1434846    -0.1191334    -2.5710650
H           3.8948538    -1.6218118    -1.9646051
C           3.1850761     0.2280786     0.1071594
C           3.3408144     0.8691519     1.3062981
H           2.4943079     0.9692407     1.9754736
C           4.6170126     1.4007268     1.6381107
H           4.7509022     1.9142893     2.5870791
O           1.0636872     0.4103391    -0.9993405
C           0.2816477    -2.2081907    -0.2106377
H          -0.3572782    -2.2506652     0.6799027
H           0.4529796    -3.2259876    -0.5749664
H          -0.2264468    -1.6265807    -0.9807576
O           6.4484333     0.4378051    -1.3099246
22
244_C8H10N2O2_0-2-11-12 (-75,) energy =    -570.8348943
N           1.4729062    -1.5453666     0.1643902
H           2.0675631    -1.9293115     0.8856983
C           1.8558276    -0.3740589    -0.4182093
C           5.6189277     1.2847555     0.7860124
H           6.5801374     1.7230902     1.0296402
C           5.5202859     0.6922527    -0.5340306
N           4.2437381     0.1248376    -0.8353016
C           4.0802456    -0.4717514    -2.1683088
H           5.0583731    -0.4496026    -2.6446104
H           3.3567394     0.1029257    -2.7500366
H           3.7293026    -1.5038668    -2.0767402
C           3.2025258     0.1360589     0.0572422
C           3.3268211     0.7106852     1.2945646
H           2.4775556     0.7266742     1.9677833
C           4.5706525     1.2967049     1.6570700
H           4.6789524     1.7578944     2.6357000
O           1.2061507     0.2188926    -1.2696933
C           0.1892884    -2.1736940    -0.1053547
H          -0.4906225    -2.0834994     0.7504350
H           0.3248117    -3.2340033    -0.3419591
H          -0.2514335    -1.6643096    -0.9631941
O           6.4316046     0.6550546    -1.3571698
22
244_C8H10N2O2_0-2-11-12 (-60,) energy =    -570.8363780
N           1.4428571    -1.4931375     0.2520727
H           1.9930046    -1.8267627     1.0308329
C           1.9460946    -0.4672189    -0.4921950
C           5.6552698     1.2236166     0.8287689
H           6.6022985     1.6741649     1.1035998
C           5.5874179     0.6905315    -0.5188355
N           4.3303582     0.1061943    -0.8669150
C           4.2183492    -0.4532681    -2.2226913
H           5.2149595    -0.4178007    -2.6578111
H           3.5166561     0.1346461    -2.8158859
H           3.8642925    -1.4867407    -2.1730855
C           3.2769279     0.0525268     0.0097138
C           3.3762458     0.5651145     1.2780596
H           2.5159757     0.5362515     1.9363755
C           4.5984355     1.1655749     1.6864553
H           4.6818394     1.5816534     2.6874437
O           1.3887281     0.0079919    -1.4742759
C           0.1449494    -2.0920700    -0.0115971
H          -0.5515838    -1.9132531     0.8160143
H           0.2404978    -3.1719816    -0.1685227
H          -0.2503692    -1.6304042    -0.9172244
O           6.5131460     0.7137328    -1.3258514
22
244_C8H10N2O2_0-2-11-12 (-45,) energy =    -570.8368370
N           1.4273779    -1.4345932     0.3591117
H           1.9558663    -1.7203265     1.1706560
C           2.0205802    -0.5816161    -0.5266436
C           5.6990928     1.2003092     0.7757473
H           6.6374279     1.6707344     1.0470072
C           5.6171700     0.7157921    -0.5890049
N           4.3775101     0.0920641    -0.9329003
C           4.2885025    -0.4465557    -2.3005036
H           5.3037632    -0.4695932    -2.6911630
H           3.6582799     0.1916984    -2.9212360
H           3.8605991    -1.4503582    -2.2814088
C           3.3374327    -0.0140086    -0.0430584
C           3.4525051     0.4557937     1.2424739
H           2.6025255     0.3982516     1.9113656
C           4.6628239     1.0779928     1.6507562
H           4.7522039     1.4601391     2.6646323
O           1.5226203    -0.2619336    -1.6001561
C           0.1300144    -2.0398353     0.1101589
H          -0.5677712    -1.8176729     0.9253365
H           0.2145850    -3.1274492     0.0016908
H          -0.2550622    -1.6185178    -0.8190754
O           6.5231017     0.8049040    -1.4135432
22
244_C8H10N2O2_0-2-11-12 (-30,) energy =    -570.8358841
N           1.3008003    -1.3070972     0.4444498
H           1.7784588    -1.5856129     1.2892674
C           2.0289977    -0.6881382    -0.5337180
C           5.7017606     1.1201745     0.7731614
H           6.6414408     1.5859267     1.0477322
C           5.6207118     0.6393139    -0.5923415
N           4.3832011     0.0125449    -0.9429420
C           4.3270133    -0.5421687    -2.3077183
H           5.3546463    -0.5887756    -2.6621509
H           3.7351642     0.1020489    -2.9592029
H           3.8739103    -1.5330728    -2.2938919
C           3.3322907    -0.0810100    -0.0603136
C           3.4519565     0.3847258     1.2279064
H           2.5972404     0.3491402     1.8911058
C           4.6622871     0.9993555     1.6437301
H           4.7478086     1.3778768     2.6592527
O           1.6150648    -0.5659489    -1.6815593
C           0.0218867    -1.9284773     0.1371414
H          -0.5493083    -2.0468567     1.0613803
H           0.1419189    -2.9099735    -0.3398255
H          -0.5263808    -1.2820038    -0.5497805
O           6.5306396     0.7310256    -1.4122425
22
244_C8H10N2O2_0-2-11-12 (-15,) energy =    -570.8335630
N           1.2442608    -1.2517451     0.4847645
H           1.6520226    -1.4452570     1.3875163
C           2.0732642    -0.8371386    -0.5246337
C           5.7144045     1.0786872     0.7499914
H           6.6484799     1.5582648     1.0196359
C           5.6217755     0.6227147    -0.6221814
N           4.3942739    -0.0306144    -0.9693368
C           4.3516370    -0.5668171    -2.3440594
H           5.3724379    -0.5204757    -2.7169689
H           3.6948748     0.0364823    -2.9715309
H           3.9807186    -1.5905236    -2.3397521
C           3.3517942    -0.1571334    -0.0760762
C           3.4890532     0.2878186     1.2192258
H           2.6471982     0.2419120     1.8969975
C           4.6905751     0.9185713     1.6315889
H           4.7809331     1.2775107     2.6537069
O           1.7361831    -0.9251874    -1.7006598
C          -0.0090962    -1.9167747     0.1580678
H          -0.6106035    -1.9971578     1.0666610
H           0.1490711    -2.9182969    -0.2621553
H          -0.5481117    -1.3220991    -0.5816685
O           6.5190638     0.7551016    -1.4504043
22
244_C8H10N2O2_0-2-11-12 (0,) energy =    -570.8307080
N           1.1935643    -1.1715102     0.4720811
H           1.1753614    -0.5354339     1.2536725
C           2.1491520    -1.0084630    -0.4974925
C           5.6913220     1.1653281     0.6727118
H           6.5921610     1.7185544     0.9123808
C           5.5847831     0.7124822    -0.6981749
N           4.3874829    -0.0129029    -1.0183402
C           4.2986810    -0.4418217    -2.4298948
H           5.1974787    -0.0627762    -2.9104854
H           3.4051331    -0.0308558    -2.8983584
H           4.2532022    -1.5280518    -2.4963759
C           3.4153942    -0.2814089    -0.0741325
C           3.5667265     0.1763062     1.2160211
H           2.8427209    -0.0755974     1.9783866
C           4.7232721     0.9039637     1.5911326
H           4.8268110     1.2475595     2.6171934
O           1.9943100    -1.5027239    -1.6094341
C          -0.0611622    -1.8268385     0.1299214
H          -0.6152026    -2.0217680     1.0513173
H           0.1519747    -2.7726830    -0.3713053
H          -0.6784739    -1.2185477    -0.5435691
O           6.4413349     0.9259943    -1.5522563
22
244_C8H10N2O2_0-2-11-12 (15,) energy =    -570.8335616
N           1.1652218    -1.0661144     0.4344462
H           1.0961859    -0.2683503     1.0489396
C           2.2114963    -1.1131360    -0.4492377
C           5.7032499     1.1337482     0.6963871
H           6.6029168     1.6891592     0.9358611
C           5.5901061     0.6924328    -0.6790338
N           4.3869071    -0.0174693    -0.9981479
C           4.2441063    -0.3709274    -2.4241981
H           4.9934304     0.2114640    -2.9559537
H           3.2405155    -0.1356244    -2.7736032
H           4.4229410    -1.4361085    -2.5763299
C           3.4404153    -0.3233324    -0.0437270
C           3.5902081     0.1202775     1.2506832
H           2.8763939    -0.1744383     2.0081705
C           4.7439771     0.8575216     1.6209121
H           4.8563728     1.1912742     2.6493627
O           2.1767710    -1.8351543    -1.4402499
C          -0.0612732    -1.7921710     0.1375251
H          -0.6837802    -1.8123410     1.0353116
H           0.1900148    -2.8138831    -0.1523403
H          -0.6263681    -1.3353162    -0.6851947
O           6.4371166     0.9104926    -1.5413430
22
244_C8H10N2O2_0-2-11-12 (30,) energy =    -570.8358841
N           0.9292248    -1.0153731     0.4826952
H           0.8311858    -0.1818174     1.0439650
C           2.0501017    -1.1440329    -0.2901536
C           5.3990973     1.2660578     0.9110400
H           6.2707417     1.8582267     1.1657679
C           5.2660698     0.9254253    -0.4920572
N           4.1055415     0.1567334    -0.8228959
C           3.9309283    -0.1267280    -2.2590824
H           4.5953406     0.5529656    -2.7886085
H           2.8938404     0.0344782    -2.5521095
H           4.1985790    -1.1605725    -2.4810065
C           3.2100479    -0.2675142     0.1312042
C           3.3711658     0.0808844     1.4515792
H           2.6852095    -0.3057115     2.1943087
C           4.4922066     0.8599149     1.8414115
H           4.6225362     1.1220162     2.8884053
O           2.1304473    -1.9648725    -1.1976583
C          -0.2613939    -1.8021880     0.2007028
H          -0.8920754    -1.8285611     1.0929147
H           0.0423711    -2.8168998    -0.0609535
H          -0.8403515    -1.3921833    -0.6371242
O           6.0612908     1.2658507    -1.3640395
22
244_C8H10N2O2_0-2-11-12 (45,) energy =    -570.8368370
N           0.9264068    -0.8857643     0.3319129
H           0.8605488    -0.0222240     0.8510449
C           2.1248932    -1.2022690    -0.2401157
C           5.4582751     1.2239251     0.9453083
H           6.3331867     1.8117548     1.1989569
C           5.3227044     0.8831113    -0.4580908
N           4.1610344     0.1150865    -0.7813969
C           3.9786915    -0.2018416    -2.2077825
H           4.6605875     0.4430774    -2.7582710
H           2.9457557    -0.0128013    -2.5050575
H           4.2125669    -1.2500946    -2.3983836
C           3.2607225    -0.2911299     0.1721678
C           3.4225766     0.0509256     1.4925122
H           2.7215906    -0.3185045     2.2309911
C           4.5508732     0.8234280     1.8784062
H           4.6861906     1.0868803     2.9244709
O           2.2897232    -2.1600499    -0.9871898
C          -0.2750657    -1.6728971     0.1120533
H          -0.6992102    -2.0128739     1.0635317
H           0.0058796    -2.5394613    -0.4874840
H          -1.0336100    -1.0947412    -0.4284090
O           6.1154461     1.2182475    -1.3343218
22
244_C8H10N2O2_0-2-11-12 (60,) energy =    -570.8363779
N           0.9135806    -0.8845676     0.2094427
H           0.8314202     0.0073574     0.6765216
C           2.1600744    -1.3045964    -0.1503882
C           5.4384656     1.1991683     1.0100278
H           6.3026980     1.8051337     1.2576096
C           5.2695776     0.9022258    -0.3999760
N           4.1295808     0.0971345    -0.7081476
C           3.9150254    -0.2231591    -2.1276721
H           4.6399511     0.3600178    -2.6917862
H           2.8982235     0.0497416    -2.4234979
H           4.0606197    -1.2905578    -2.2990116
C           3.2642594    -0.3515633     0.2567733
C           3.4529433    -0.0500354     1.5814434
H           2.7697662    -0.4461465     2.3235039
C           4.5718113     0.7426562     1.9567901
H           4.7325853     0.9784869     3.0058813
O           2.3884494    -2.3523518    -0.7428521
C          -0.2805934    -1.6807275    -0.0206168
H          -0.7402808    -1.9913333     0.9250484
H           0.0203043    -2.5675353    -0.5797255
H          -1.0160860    -1.1172716    -0.6050147
O           6.0189565     1.2951942    -1.2903787
22
244_C8H10N2O2_0-2-11-12 (75,) energy =    -570.8348943
N           0.9104727    -0.8681175     0.1056183
H           0.8290029     0.0623908     0.4913904
C           2.1611692    -1.3929686    -0.0294234
C           5.4728722     1.1227942     1.0025748
H           6.3433561     1.7334905     1.2140108
C           5.2340532     0.8427713    -0.4002145
N           4.0845259     0.0330199    -0.6556820
C           3.8050041    -0.2996788    -2.0595075
H           4.5171115     0.2598311    -2.6628003
H           2.7824349    -0.0086755    -2.3173829
H           3.9242479    -1.3728528    -2.2213909
C           3.2732221    -0.4329989     0.3470412
C           3.5314471    -0.1559238     1.6635467
H           2.8862065    -0.5606887     2.4346118
C           4.6623145     0.6428464     1.9876849
H           4.8777579     0.8663771     3.0296925
O           2.3961071    -2.5218140    -0.4407872
C          -0.2963641    -1.6400768    -0.1449690
H          -0.8203034    -1.8817870     0.7876870
H           0.0033430    -2.5679461    -0.6336782
H          -0.9753205    -1.0860439    -0.8012325
O           5.9321639     1.2483914    -1.3262553
22
244_C8H10N2O2_0-2-11-12 (90,) energy =    -570.8332495
N           0.9709760    -0.8415338     0.0032224
H           0.8974570     0.1328237     0.2618362
C           2.1940471    -1.4352542     0.0986297
C           5.4925305     1.1624478     0.9794453
H           6.3470116     1.8075001     1.1501273
C           5.1640612     0.9182544    -0.4107512
N           4.0458552     0.0498848    -0.6103846
C           3.7006949    -0.2754002    -2.0004293
H           4.5159366     0.0901446    -2.6220846
H           2.7711799     0.2228913    -2.2950242
H           3.5860139    -1.3555621    -2.1077342
C           3.3224439    -0.4747657     0.4313748
C           3.6585189    -0.2218381     1.7337695
H           3.0804062    -0.6686700     2.5340928
C           4.7738110     0.6179723     2.0024530
H           5.0511921     0.8231327     3.0335580
O           2.3992179    -2.6260882    -0.0954833
C          -0.2447522    -1.5919802    -0.2709303
H          -0.8518314    -1.7219448     0.6333150
H           0.0506978    -2.5746406    -0.6405302
H          -0.8432636    -1.0804637    -1.0312805
O           5.7646588     1.3910388    -1.3729796
22
244_C8H10N2O2_0-2-11-12 (105,) energy =    -570.8325301
N           1.0236587    -0.8913280    -0.0602808
H           1.0049848     0.1167705     0.0094222
C           2.1788219    -1.5359280     0.2730930
C           5.4628707     1.1035702     1.1011550
H           6.2941785     1.7800444     1.2647572
C           5.0692825     0.9173290    -0.2801990
N           3.9862325     0.0050089    -0.4708488
C           3.6283774    -0.2861946    -1.8650344
H           4.5073512    -0.0777821    -2.4734267
H           2.8113328     0.3573940    -2.2076500
H           3.3367388    -1.3331807    -1.9593485
C           3.3406512    -0.6076069     0.5764624
C           3.7382596    -0.4092421     1.8705230
H           3.2195793    -0.9194180     2.6732563
C           4.8267283     0.4678763     2.1268998
H           5.1487976     0.6312428     3.1523890
O           2.2948605    -2.7526022     0.3323373
C          -0.2127374    -1.5983168    -0.3544991
H          -0.9511298    -1.4634046     0.4449076
H           0.0276575    -2.6588095    -0.4376437
H          -0.6423604    -1.2467956    -1.2985565
O           5.5904010     1.4644273    -1.2497237
22
244_C8H10N2O2_0-2-11-12 (120,) energy =    -570.8327533
N           1.0837913    -0.9000310    -0.2157773
H           1.1230212     0.0981991    -0.3680882
C           2.1696208    -1.5174526     0.3376237
C           5.4465449     1.1625808     1.0544830
H           6.2554178     1.8684900     1.2057749
C           4.9896348     1.0170275    -0.3117187
N           3.9358647     0.0701794    -0.4928156
C           3.5805054    -0.1931251    -1.8937131
H           4.4932683    -0.1208554    -2.4852420
H           2.8800796     0.5583472    -2.2735685
H           3.1423709    -1.1857964    -1.9869840
C           3.3682652    -0.6169280     0.5570514
C           3.8348427    -0.4624231     1.8348368
H           3.3743160    -1.0288137     2.6345993
C           4.8976294     0.4478165     2.0785260
H           5.2667461     0.5761242     3.0929933
O           2.1804596    -2.6892584     0.6908384
C          -0.1831477    -1.5847041    -0.4152360
H          -0.9368678    -1.2540635     0.3098055
H          -0.0061226    -2.6516447    -0.2758520
H          -0.5612349    -1.4060066    -1.4273464
O           5.4414867     1.6173862    -1.2848163
22
244_C8H10N2O2_0-2-11-12 (135,) energy =    -570.8329698
N           1.3462233    -0.8403621    -0.3540398
H           1.6914920    -0.2894827    -1.1277652
C           1.8635792    -0.6095623     0.8906680
C           5.1120994     2.1957489     1.0387076
H           5.9207607     2.9179209     1.0314022
C           5.1668261     1.1836208     0.0049016
N           4.1087470     0.2247327     0.0408902
C           4.3022740    -0.9075439    -0.8761862
H           5.3640946    -1.1565615    -0.8787345
H           4.0319249    -0.6354692    -1.9023728
H           3.7090824    -1.7589495    -0.5501573
C           3.0745961     0.2977082     0.9518598
C           3.0695506     1.2607667     1.9268011
H           2.2491922     1.2755413     2.6324875
C           4.1131905     2.2222582     1.9666563
H           4.1031595     2.9883775     2.7378290
O           1.3590039    -1.0530364     1.9146933
C           0.0929859    -1.5588862    -0.5295502
H           0.0097882    -2.3009740     0.2651970
H           0.0923303    -2.0604170    -1.5012523
H          -0.7757471    -0.8905313    -0.4701034
O           6.0448634     1.0839235    -0.8498747
22
244_C8H10N2O2_0-2-11-12 (150,) energy =    -570.8321682
N           1.3929029    -0.9458972    -0.2911445
H           1.7980819    -0.5191999    -1.1120302
C           1.7753139    -0.4885546     0.9397662
C           5.0972373     2.2288491     1.2090808
H           5.9221605     2.9317911     1.2383678
C           5.1466136     1.2513762     0.1422303
N           4.0695396     0.3118477     0.1261468
C           4.2815001    -0.8058836    -0.8053721
H           5.3541825    -0.9942927    -0.8504548
H           3.9604066    -0.5466355    -1.8214638
H           3.7478432    -1.6886246    -0.4602373
C           3.0138443     0.3823878     1.0182858
C           3.0244874     1.3064707     2.0310369
H           2.1893841     1.3165640     2.7186534
C           4.0882806     2.2407373     2.1251515
H           4.0835097     2.9751884     2.9265199
O           1.1341491    -0.7430013     1.9530892
C           0.1231673    -1.6424547    -0.4479657
H           0.0349989    -2.4008247     0.3316951
H           0.1029694    -2.1238940    -1.4286018
H          -0.7338750    -0.9627077    -0.3596743
O           6.0423811     1.1644757    -0.6956574
22
244_C8H10N2O2_0-2-11-12 (165,) energy =    -570.8302027
N           1.4543860    -1.1371130    -0.4621212
H           1.8979236    -0.8652138    -1.3265132
C           1.7948170    -0.4789020     0.6882846
C           5.3204862     1.9827579     0.9887983
H           6.1960779     2.6203949     1.0353630
C           5.2791704     1.0599631    -0.1251089
N           4.1409037     0.1928207    -0.1613710
C           4.2676560    -0.8905890    -1.1455620
H           5.3328607    -1.0465836    -1.3124029
H           3.8340894    -0.6107097    -2.1147224
H           3.7983324    -1.7980480    -0.7700016
C           3.0975490     0.3039508     0.7462663
C           3.1974128     1.1776177     1.7991480
H           2.3711028     1.2213493     2.4953639
C           4.3289633     2.0233698     1.9217549
H           4.3899268     2.7138320     2.7590845
O           1.0733924    -0.5255364     1.6793464
C           0.1449192    -1.7707066    -0.5597113
H          -0.0070386    -2.4139414     0.3086226
H           0.1154617    -2.3744671    -1.4698306
H          -0.6688928    -1.0351615    -0.5831813
O           6.1528833     0.9606639    -0.9849626
22
244_C8H10N2O2_0-2-11-12 (180,) energy =    -570.8278716
N           1.4726498    -1.2430034    -0.4353922
H           2.2333987    -1.7077496    -0.9002757
C           1.7284529    -0.2998794     0.5192836
C           5.4859288     1.7646872     1.0776077
H           6.4344821     2.2685819     1.2243571
C           5.4471996     0.8155185    -0.0119369
N           4.1817625     0.1706993    -0.2244498
C           4.1498442    -0.6608392    -1.4318365
H           5.0624731    -0.4372850    -1.9824566
H           3.2772133    -0.4198851    -2.0413885
H           4.1716725    -1.7304752    -1.1854110
C           3.0912251     0.3864965     0.6092441
C           3.1839574     1.3076406     1.6224311
H           2.3118998     1.4535353     2.2441816
C           4.3943273     2.0065470     1.8539773
H           4.4441144     2.7311558     2.6627049
O           0.8407175     0.0484822     1.2927962
C           0.1796629    -1.9161174    -0.4368736
H           0.0451832    -2.5492810     0.4486860
H           0.1090782    -2.5304676    -1.3375944
H          -0.6176703    -1.1705757    -0.4413087
O           6.4029476     0.5651196    -0.7448685
