29
369_C12H16O_5-6-10-9 (-165,) energy =    -542.1434996
C           0.6682482     0.9751543     0.3924518
C          -0.6338546     0.6580824     1.1471124
C          -1.6604650    -0.0293539     0.2337926
C          -1.0663502    -1.2818345    -0.4293237
C           0.2384564    -0.9612268    -1.1759140
C           1.2537642    -0.2881241    -0.2507220
O           2.3989970     0.0120200    -1.0627183
C           6.1376430     1.0815639     0.4517010
C           5.7916105     1.2910161    -0.8871427
C           4.5304163     0.9370891    -1.3546836
C           3.5924861     0.3548719    -0.4885181
C           3.9308772     0.1467394     0.8550737
C           5.2011383     0.5111850     1.3114144
H           0.4696553     1.6995372    -0.4093898
H           1.4018454     1.4363876     1.0632085
H          -0.4106810     0.0010092     2.0009415
H          -1.0522043     1.5802409     1.5687089
H          -2.5602816    -0.2924348     0.8039542
H          -1.9785939     0.6767984    -0.5470204
H          -0.8682623    -2.0406252     0.3421895
H          -1.7896465    -1.7279640    -1.1227442
H           0.6816882    -1.8689332    -1.6016380
H           0.0347145    -0.2814657    -2.0144668
H           1.5388478    -1.0063876     0.5324682
H           7.1212274     1.3621595     0.8170002
H           6.5076568     1.7380360    -1.5720689
H           4.2457600     1.0947631    -2.3904571
H           3.2230367    -0.2949710     1.5472703
H           5.4524759     0.3437363     2.3557793
29
369_C12H16O_5-6-10-9 (-150,) energy =    -542.1427426
C           0.7306884     0.9569396     0.3294023
C          -0.5942055     0.7437140     1.0806761
C          -1.6409316     0.0545155     0.1917763
C          -1.0993712    -1.2605963    -0.3900906
C           0.2285300    -1.0449352    -1.1336827
C           1.2620954    -0.3660179    -0.2342006
O           2.4311754    -0.1684544    -1.0469607
C           6.0861620     1.1588193     0.4704101
C           5.6753150     1.4621445    -0.8307871
C           4.4398601     1.0257349    -1.3012171
C           3.6021878     0.2607701    -0.4780094
C           4.0071666    -0.0444468     0.8278963
C           5.2451996     0.4079357     1.2910908
H           0.5778803     1.6464750    -0.5123660
H           1.4785414     1.4153960     0.9865117
H          -0.4128301     0.1260906     1.9729236
H          -0.9737039     1.7066011     1.4440053
H          -2.5597969    -0.1324041     0.7616354
H          -1.9143652     0.7290739    -0.6327200
H          -0.9475673    -1.9823197     0.4261974
H          -1.8345161    -1.7111963    -1.0680004
H           0.6341149    -1.9955922    -1.4990304
H           0.0679227    -0.4069966    -2.0134335
H           1.5008596    -1.0484565     0.5953299
H           7.0472377     1.5055985     0.8389736
H           6.3166959     2.0505401    -1.4820015
H           4.1026986     1.2574495    -2.3068537
H           3.3729502    -0.6340619     1.4811265
H           5.5506240     0.1642872     2.3056075
29
369_C12H16O_5-6-10-9 (-135,) energy =    -542.1419271
C           0.7335351     1.0032058     0.2084613
C          -0.5953529     0.8665503     0.9702411
C          -1.6353200     0.0872697     0.1503014
C          -1.0888281    -1.2805059    -0.2881682
C           0.2439823    -1.1419374    -1.0417065
C           1.2699309    -0.3691948    -0.2132666
O           2.4461085    -0.2451112    -1.0338043
C           6.0663845     1.1481241     0.5105375
C           5.5565505     1.6318696    -0.6967969
C           4.3322661     1.1736436    -1.1800466
C           3.6116353     0.2096313    -0.4651437
C           4.1209456    -0.2836965     0.7428008
C           5.3421364     0.1919075     1.2239707
H           0.5855814     1.6045443    -0.6993057
H           1.4795711     1.5242375     0.8201839
H          -0.4185128     0.3440687     1.9221538
H          -0.9787226     1.8608022     1.2305364
H          -2.5580104    -0.0410972     0.7301320
H          -1.9036630     0.6721993    -0.7415959
H          -0.9418260    -1.9128081     0.6000098
H          -1.8193610    -1.8004362    -0.9199130
H           0.6531947    -2.1250057    -1.3024386
H           0.0879963    -0.6008426    -1.9849605
H           1.5083677    -0.9551931     0.6867748
H           7.0174702     1.5108749     0.8897808
H           6.1095450     2.3773636    -1.2625231
H           3.9177956     1.5426837    -2.1131610
H           3.5788095    -1.0433028     1.2970238
H           5.7314563    -0.1975749     2.1612722
29
369_C12H16O_5-6-10-9 (-120,) energy =    -542.1415048
C           0.6891867     1.0885724     0.0244569
C          -0.6291777     1.0097174     0.8125028
C          -1.6449539     0.0920240     0.1145760
C          -1.0522634    -1.3025466    -0.1418250
C           0.2717147    -1.2214804    -0.9195077
C           1.2732697    -0.3079535    -0.2145656
O           2.4462404    -0.2466174    -1.0510327
C           6.0633490     1.0772867     0.5602274
C           5.4528222     1.7672944    -0.4890646
C           4.2305150     1.3325624    -1.0027566
C           3.6177354     0.1917049    -0.4754685
C           4.2307704    -0.5096109     0.5700946
C           5.4469523    -0.0606960     1.0857159
H           0.5131430     1.5563126    -0.9542552
H           1.4204422     1.7130635     0.5517607
H          -0.4277830     0.6252221     1.8234136
H          -1.0466618     2.0158000     0.9423367
H          -2.5596121     0.0105609     0.7152930
H          -1.9384968     0.5422675    -0.8450006
H          -0.8787463    -1.8039252     0.8219225
H          -1.7671530    -1.9276294    -0.6908599
H           0.7142591    -2.2162072    -1.0485112
H           0.0917147    -0.8199773    -1.9262353
H           1.5464956    -0.7528000     0.7543698
H           7.0128930     1.4196316     0.9619365
H           5.9252803     2.6524925    -0.9071195
H           3.7406313     1.8572806    -1.8172112
H           3.7647014    -1.4096589     0.9604498
H           5.9201573    -0.6110307     1.8949576
29
369_C12H16O_5-6-10-9 (-105,) energy =    -542.1409449
C           0.6986849     1.1044468    -0.0855767
C          -0.6230943     1.0960978     0.7012298
C          -1.6398822     0.1263008     0.0798285
C          -1.0507323    -1.2865125    -0.0549814
C           0.2764409    -1.2751871    -0.8311119
C           1.2798210    -0.3088512    -0.2030275
O           2.4603198    -0.3350370    -1.0333358
C           6.0402529     1.0670163     0.5936657
C           5.3240702     1.8509032    -0.3131915
C           4.1159945     1.3924572    -0.8413872
C           3.6262651     0.1370078    -0.4689038
C           4.3436875    -0.6541212     0.4354587
C           5.5464658    -0.1859219     0.9649476
H           0.5267670     1.4880696    -1.1010755
H           1.4273828     1.7707830     0.3911013
H          -0.4263242     0.7979208     1.7417172
H          -1.0372409     2.1110313     0.7439105
H          -2.5569013     0.0991120     0.6818723
H          -1.9284258     0.4945954    -0.9155648
H          -0.8821676    -1.7046169     0.9485239
H          -1.7654470    -1.9540832    -0.5518076
H           0.7163311    -2.2784840    -0.8733254
H           0.1019135    -0.9601892    -1.8691785
H           1.5513611    -0.6703328     0.8016322
H           6.9794798     1.4270951     1.0042179
H           5.7040856     2.8250968    -0.6099244
H           3.5499453     1.9862066    -1.5525263
H           3.9596972    -1.6347902     0.7019876
H           6.1032797    -0.8057677     1.6630238
29
369_C12H16O_5-6-10-9 (-90,) energy =    -542.1402994
C           0.0129469     1.2893182    -0.8386950
C          -1.2847538     1.0991626    -0.0369387
C          -1.6150001    -0.3883904     0.1596757
C          -0.4348043    -1.1392017     0.7944516
C           0.8576835    -0.9485799    -0.0181802
C           1.1816066     0.5386434    -0.2002480
O           2.3235233     0.7499239    -1.0593041
C           6.1553852     0.1770793     0.4978543
C           5.5207777     1.4152208     0.6221210
C           4.2326470     1.5990105     0.1188477
C           3.5684452     0.5369913    -0.5042884
C           4.2067329    -0.6997574    -0.6443824
C           5.4966594    -0.8757899    -0.1403130
H          -0.1183591     0.9094289    -1.8613787
H           0.2697648     2.3515197    -0.9254154
H          -1.1785116     1.5786217     0.9474512
H          -2.1119264     1.6121021    -0.5429430
H          -2.5139473    -0.4992994     0.7791282
H          -1.8479914    -0.8397526    -0.8158768
H          -0.2786573    -0.7693932     1.8187124
H          -0.6629832    -2.2085001     0.8837284
H           1.6951704    -1.4587433     0.4716172
H           0.7426441    -1.3977705    -1.0147151
H           1.4033226     0.9813986     0.7841530
H           7.1600784     0.0368872     0.8869097
H           6.0327086     2.2438676     1.1045914
H           3.7323397     2.5603808     0.1920550
H           3.6928756    -1.5035702    -1.1621012
H           5.9893916    -1.8381562    -0.2524738
29
369_C12H16O_5-6-10-9 (-75,) energy =    -542.1411015
C           0.0000659     1.2512379    -0.9424979
C          -1.2972814     1.1294203    -0.1263851
C          -1.6236064    -0.3356576     0.2031112
C          -0.4422490    -1.0254213     0.9026105
C           0.8490213    -0.9028071     0.0758628
C           1.1674073     0.5635376    -0.2360089
O           2.3130831     0.6865846    -1.1048155
C           6.1280890     0.1255212     0.4944712
C           5.4045541     1.2799327     0.8034261
C           4.1220755     1.4674404     0.2874762
C           3.5515711     0.4874692    -0.5330083
C           4.2751629    -0.6657874    -0.8504220
C           5.5613790    -0.8420516    -0.3375858
H          -0.1296188     0.7802546    -1.9266681
H           0.2536680     2.3022317    -1.1242039
H          -1.1923660     1.6955513     0.8110310
H          -2.1261208     1.5924618    -0.6758408
H          -2.5226199    -0.3923454     0.8297475
H          -1.8554530    -0.8729864    -0.7281388
H          -0.2877694    -0.5670706     1.8906920
H          -0.6686741    -2.0832131     1.0848952
H           1.6917853    -1.3645296     0.6040723
H           0.7346796    -1.4372355    -0.8776737
H           1.3828267     1.0923561     0.7060939
H           7.1289145    -0.0147557     0.8932324
H           5.8442889     2.0443452     1.4389435
H           3.5613621     2.3727692     0.5023579
H           3.8223144    -1.4042386    -1.5048851
H           6.1207854    -1.7394266    -0.5891659
29
369_C12H16O_5-6-10-9 (-60,) energy =    -542.1416024
C           0.0058695     1.1838007    -1.0241040
C          -1.3007074     1.1340201    -0.2149988
C          -1.6345106    -0.2972124     0.2345292
C          -0.4633890    -0.9273515     1.0042817
C           0.8373093    -0.8774814     0.1852371
C           1.1623197     0.5563806    -0.2472337
O           2.3148882     0.5895721    -1.1124159
C           6.1526002     0.1190915     0.4612560
C           5.3330250     1.1450861     0.9367651
C           4.0408364     1.3103787     0.4373241
C           3.5555886     0.4304444    -0.5384210
C           4.3745816    -0.5959675    -1.0198545
C           5.6695936    -0.7452876    -0.5233364
H          -0.1143644     0.6304251    -1.9655836
H           0.2641136     2.2150105    -1.2922107
H          -1.2051156     1.7780560     0.6717843
H          -2.1221515     1.5496200    -0.8114105
H          -2.5408569    -0.2985371     0.8530910
H          -1.8572042    -0.9114823    -0.6501990
H          -0.3193248    -0.3867320     1.9515551
H          -0.6950377    -1.9652791     1.2733152
H           1.6747274    -1.2919843     0.7594882
H           0.7335881    -1.4911083    -0.7204576
H           1.3646340     1.1635270     0.6478649
H           7.1597698    -0.0012244     0.8501763
H           5.7045963     1.8317613     1.6931201
H           3.4165048     2.1269346     0.7879684
H           3.9819867    -1.2591245    -1.7846110
H           6.3003116    -1.5443201    -0.9044882
29
369_C12H16O_5-6-10-9 (-45,) energy =    -542.1421133
C          -0.0189646     1.0773469    -1.1434104
C          -1.3441043     1.0783946    -0.3642001
C          -1.6284643    -0.2927072     0.2690167
C          -0.4532587    -0.7581692     1.1427165
C           0.8676916    -0.7581251     0.3553390
C           1.1410340     0.6187696    -0.2599012
O           2.3084528     0.6008872    -1.1010004
C           6.1588342     0.0398033     0.4108796
C           5.2717934     0.8707077     1.0964644
C           3.9706741     1.0669057     0.6295192
C           3.5442499     0.4104954    -0.5322608
C           4.4323062    -0.4227028    -1.2234221
C           5.7323990    -0.6011025    -0.7550330
H          -0.0874265     0.3939975    -2.0008237
H           0.2021610     2.0727031    -1.5461413
H          -1.3011356     1.8407096     0.4278275
H          -2.1652891     1.3707279    -1.0299919
H          -2.5506380    -0.2526851     0.8623260
H          -1.7997583    -1.0306021    -0.5283464
H          -0.3604094    -0.0897943     2.0116510
H          -0.6468394    -1.7606168     1.5437934
H           1.7036707    -1.0531380     1.0004494
H           0.8177225    -1.4916915    -0.4613386
H           1.2783300     1.3546443     0.5465349
H           7.1706429    -0.1046486     0.7787134
H           5.5937296     1.3825079     1.9999310
H           3.2996460     1.7328419     1.1624797
H           4.0829940    -0.9149117    -2.1258662
H           6.4129286    -1.2494878    -1.3010060
29
369_C12H16O_5-6-10-9 (-30,) energy =    -542.1428961
C          -0.0093280     0.9861258    -1.2042405
C          -1.3401430     1.0677349    -0.4394025
C          -1.6435221    -0.2405718     0.3073686
C          -0.4799074    -0.6398685     1.2278860
C           0.8476479    -0.7199743     0.4556179
C           1.1400062     0.5964610    -0.2738742
O           2.3097986     0.4987915    -1.1029343
C           6.1850714     0.0565122     0.3820073
C           5.2268162     0.6906041     1.1717876
C           3.9131259     0.8450175     0.7217079
C           3.5479119     0.3464305    -0.5356879
C           4.5093359    -0.2910480    -1.3322347
C           5.8168819    -0.4301732    -0.8756632
H          -0.0779293     0.2312032    -1.9992982
H           0.2247211     1.9405084    -1.6901270
H          -1.2953469     1.8954884     0.2838283
H          -2.1529303     1.3091728    -1.1351847
H          -2.5697679    -0.1407649     0.8871058
H          -1.8160611    -1.0429838    -0.4247113
H          -0.3875780     0.0995745     2.0373127
H          -0.6863567    -1.6024738     1.7115454
H           1.6737740    -0.9693980     1.1313349
H           0.7965415    -1.5193476    -0.2965208
H           1.2775346     1.4021060     0.4629592
H           7.2042801    -0.0574854     0.7397090
H           5.4982960     1.0782183     2.1505403
H           3.1878559     1.3507553     1.3498961
H           4.2067182    -0.6643579    -2.3057688
H           6.5513997    -0.9264744    -1.5048050
29
369_C12H16O_5-6-10-9 (-15,) energy =    -542.1435566
C           0.0120400     0.9034248    -1.2353890
C          -1.3127336     1.0840953    -0.4770990
C          -1.6726904    -0.1678401     0.3380795
C          -0.5261446    -0.5692237     1.2787919
C           0.7952068    -0.7476116     0.5121252
C           1.1453839     0.5158566    -0.2838662
O           2.3081492     0.3216919    -1.1028584
C           6.2132759     0.1338306     0.3555200
C           5.2024786     0.5937701     1.1969576
C           3.8762444     0.6627276     0.7597445
C           3.5549339     0.2606502    -0.5434494
C           4.5709128    -0.2036403    -1.3928234
C           5.8862537    -0.2634871    -0.9450525
H          -0.0906610     0.1099618    -1.9881417
H           0.2863475     1.8188705    -1.7723551
H          -1.2302969     1.9464140     0.2010144
H          -2.1150299     1.3238703    -1.1855081
H          -2.5922104     0.0041108     0.9115554
H          -1.8825968    -0.9995396    -0.3502055
H          -0.4001045     0.2067193     2.0486038
H          -0.7735902    -1.4953003     1.8119795
H           1.6096714    -1.0036178     1.1991065
H           0.7057364    -1.5794347    -0.2000350
H           1.3210933     1.3542709     0.4066136
H           7.2402981     0.0834665     0.7052208
H           5.4387497     0.9068362     2.2109090
H           3.1113841     1.0257938     1.4367421
H           4.3011172    -0.5072325    -2.3996807
H           6.6613658    -0.6249597    -1.6160313
29
369_C12H16O_5-6-10-9 (0,) energy =    -542.1437132
C           0.6018087     0.9477525    -0.6483611
C          -0.7522450     1.3847312    -0.0641711
C          -1.7349822     0.2068198     0.0189075
C          -1.1293734    -0.9692729     0.8006761
C           0.2269903    -1.3977939     0.2179409
C           1.1994568    -0.2183024     0.1498625
O           2.3970054    -0.7152933    -0.4658316
C           6.1753098     0.9921473     0.0030387
C           5.0878908     1.5805792     0.6444184
C           3.7995621     1.0521093     0.5142331
C           3.5969265    -0.0910561    -0.2701963
C           4.6906069    -0.6848334    -0.9199653
C           5.9649445    -0.1462874    -0.7824000
H           0.4707582     0.6109265    -1.6858283
H           1.3016445     1.7906131    -0.6759677
H          -0.5990012     1.8009932     0.9427386
H          -1.1743351     2.1945757    -0.6717780
H          -2.6752272     0.5282042     0.4842701
H          -1.9858089    -0.1261054    -0.9988322
H          -0.9976322    -0.6751952     1.8525371
H          -1.8176858    -1.8232482     0.8026873
H           0.6741988    -2.2019583     0.8137227
H           0.0922017    -1.7907573    -0.7990128
H           1.4283561     0.1072971     1.1751823
H           7.1712012     1.4122052     0.1094176
H           5.2318222     2.4677713     1.2560545
H           2.9734850     1.5371982     1.0209933
H           4.5119367    -1.5698196    -1.5229330
H           6.8007667    -0.6199271    -1.2910762
29
369_C12H16O_5-6-10-9 (15,) energy =    -542.1435579
C           0.6747607     0.8892685    -0.6364905
C          -0.6946787     1.3815668    -0.1386314
C          -1.7135678     0.2337621    -0.0679873
C          -1.1828699    -0.9313256     0.7819243
C           0.1890199    -1.4146369     0.2849388
C           1.1948994    -0.2633677     0.2315591
O           2.4105470    -0.8169996    -0.2940317
C           6.1348954     1.0531251    -0.0864258
C           5.0890959     1.5493588     0.6890304
C           3.8192528     0.9660201     0.6445873
C           3.5908794    -0.1328816    -0.1941921
C           4.6422046    -0.6341634    -0.9768975
C           5.9009953    -0.0456219    -0.9196818
H           0.5880218     0.5206449    -1.6678496
H           1.3989464     1.7115203    -0.6527455
H          -0.5813389     1.8279322     0.8606164
H          -1.0620526     2.1810284    -0.7936403
H          -2.6665932     0.5960841     0.3375023
H          -1.9220151    -0.1267664    -1.0858734
H          -1.0976186    -0.6060433     1.8293732
H          -1.8943029    -1.7660855     0.7746827
H           0.5826121    -2.2105961     0.9277099
H           0.0959578    -1.8362395    -0.7251872
H           1.3697245     0.0927441     1.2578215
H           7.1174821     1.5140150    -0.0451974
H           5.2532122     2.4026444     1.3424098
H           3.0252364     1.3732509     1.2601021
H           4.4449028    -1.4880856    -1.6176949
H           6.7047518    -0.4467130    -1.5318675
29
369_C12H16O_5-6-10-9 (30,) energy =    -542.1428957
C           0.7316461     0.8313942    -0.6375571
C          -0.6515218     1.3642936    -0.2275790
C          -1.6895208     0.2341947    -0.1486651
C          -1.2161458    -0.8939184     0.7812003
C           0.1694536    -1.4190021     0.3724070
C           1.1931105    -0.2848894     0.3066742
O           2.4236097    -0.8820637    -0.1342767
C           6.0975717     1.0977861    -0.1485827
C           5.1222956     1.4889743     0.7678659
C           3.8721990     0.8655333     0.7964714
C           3.5879004    -0.1596567    -0.1151898
C           4.5666509    -0.5555993    -1.0374368
C           5.8111880     0.0676637    -1.0491513
H           0.6879925     0.4176607    -1.6545325
H           1.4692312     1.6419510    -0.6537704
H          -0.5769864     1.8574605     0.7530844
H          -0.9770826     2.1352846    -0.9366206
H          -2.6549104     0.6280320     0.1932457
H          -1.8558391    -0.1738411    -1.1563470
H          -1.1738545    -0.5179844     1.8142190
H          -1.9392398    -1.7186384     0.7820207
H           0.5219724    -2.1859389     1.0718691
H           0.1159171    -1.8905025    -0.6183266
H           1.3244558     0.1223364     1.3205003
H           7.0670686     1.5873026    -0.1621585
H           5.3309042     2.2857222     1.4774964
H           3.1332055     1.1806340     1.5251756
H           4.3277468    -1.3563040    -1.7306162
H           6.5601335    -0.2505067    -1.7699160
29
369_C12H16O_5-6-10-9 (45,) energy =    -542.1421125
C           0.7621055     0.7566002    -0.7052824
C          -0.6226627     1.3327697    -0.3658091
C          -1.6716848     0.2206889    -0.2110725
C          -1.2244437    -0.8285980     0.8188420
C           0.1636700    -1.3963059     0.4813186
C           1.1972219    -0.2793377     0.3371380
O           2.4331704    -0.9165520    -0.0324780
C           6.0671441     1.1332562    -0.1515159
C           5.1867799     1.3668643     0.9055965
C           3.9550319     0.7121460     0.9674174
C           3.5910033    -0.1779212    -0.0510956
C           4.4725409    -0.4159844    -1.1127124
C           5.7043519     0.2335668    -1.1570924
H           0.7321139     0.2607291    -1.6854968
H           1.5088423     1.5564597    -0.7734949
H          -0.5601587     1.9052088     0.5716392
H          -0.9295233     2.0444508    -1.1420633
H          -2.6394039     0.6487730     0.0792578
H          -1.8241703    -0.2694924    -1.1837379
H          -1.1970683    -0.3668968     1.8170196
H          -1.9547615    -1.6449553     0.8760998
H           0.4975180    -2.1036666     1.2494399
H           0.1232623    -1.9499483    -0.4666586
H           1.3147408     0.2161331     1.3126175
H           7.0251873     1.6437164    -0.1904817
H           5.4605468     2.0575278     1.6992435
H           3.2901369     0.8890823     1.8067310
H           4.1727167    -1.1159961    -1.8865243
H           6.3810564     0.0399714    -1.9854671
29
369_C12H16O_5-6-10-9 (60,) energy =    -542.1416024
C           0.7320322     0.6357394    -0.8867387
C          -0.6383609     1.2633450    -0.5813343
C          -1.6811934     0.1896574    -0.2337484
C          -1.1971611    -0.7059056     0.9176018
C           0.1781493    -1.3236059     0.6155411
C           1.2059700    -0.2459808     0.2736815
O           2.4322612    -0.9271277    -0.0584398
C           6.0608076     1.1367679    -0.0653459
C           5.2833027     1.1122466     1.0945518
C           4.0592855     0.4429920     1.1144770
C           3.5987889    -0.1969827    -0.0431936
C           4.3762113    -0.1778719    -1.2056471
C           5.6045394     0.4832309    -1.2118961
H           0.6645717     0.0078134    -1.7860368
H           1.4783306     1.4124914    -1.0929929
H          -0.5403525     1.9607483     0.2638720
H          -0.9737955     1.8612774    -1.4376605
H          -2.6378957     0.6591625     0.0277278
H          -1.8687475    -0.4321906    -1.1213251
H          -1.1336732    -0.1074165     1.8385167
H          -1.9254792    -1.5017426     1.1160886
H           0.5393771    -1.9152267     1.4649315
H           0.1022768    -2.0083083    -0.2403155
H           1.3717594     0.3857231     1.1592458
H           7.0155365     1.6549956    -0.0730811
H           5.6360739     1.6061450     1.9963705
H           3.4708078     0.4009572     2.0263061
H           4.0051710    -0.6904471    -2.0878921
H           6.2035242     0.4914286    -2.1189157
29
369_C12H16O_5-6-10-9 (75,) energy =    -542.1411015
C           0.7517785     0.5450179    -0.9509403
C          -0.6156035     1.2071706    -0.7106354
C          -1.6704518     0.1757829    -0.2814298
C          -1.2022642    -0.6218983     0.9457702
C           0.1701223    -1.2732017     0.7083902
C           1.2105495    -0.2376424     0.2842789
O           2.4373325    -0.9554099     0.0346143
C           6.0338622     1.1623988    -0.0462244
C           5.3770364     0.9483649     1.1680205
C           4.1659192     0.2568807     1.2021084
C           3.5987377    -0.2130543     0.0119513
C           4.2565079    -0.0072441    -1.2043188
C           5.4724977     0.6777143    -1.2292848
H           0.6843099    -0.1570169    -1.7938610
H           1.5039628     1.2968381    -1.2182013
H          -0.5173834     1.9732653     0.0727582
H          -0.9394116     1.7326343    -1.6175292
H          -2.6248916     0.6736610    -0.0686522
H          -1.8568917    -0.5179313    -1.1143174
H          -1.1402352     0.0526206     1.8126246
H          -1.9385666    -1.3922947     1.2058321
H           0.5203250    -1.7926152     1.6081050
H           0.0951955    -2.0282394    -0.0863035
H           1.3788849     0.4673650     1.1138833
H           6.9798269     1.6962392    -0.0686688
H           5.8146182     1.3101712     2.0949488
H           3.6599703     0.0644083     2.1440007
H           3.8096684    -0.3974662    -2.1135840
H           5.9811435     0.8332013    -2.1772372
29
369_C12H16O_5-6-10-9 (90,) energy =    -542.1402992
C           0.7479604     0.4650546    -1.0170394
C          -0.6256968     1.1354818    -0.8413673
C          -1.6771136     0.1392419    -0.3297648
C          -1.2107070    -0.5436662     0.9651181
C           0.1674077    -1.2025529     0.7925311
C           1.2062631    -0.2029418     0.2842991
O           2.4380177    -0.9392557     0.1201359
C           6.0439587     1.1614854    -0.0213389
C           5.5065926     0.7633755     1.2049723
C           4.2917128     0.0790684     1.2516701
C           3.6026417    -0.2016020     0.0668949
C           4.1452074     0.1818887    -1.1640467
C           5.3623788     0.8644161    -1.2032667
H           0.6896103    -0.3080917    -1.7961345
H           1.4921749     1.1996387    -1.3456822
H          -0.5362241     1.9671139    -0.1268053
H          -0.9469318     1.5785162    -1.7921380
H          -2.6356897     0.6478975    -0.1668862
H          -1.8543911    -0.6261770    -1.0994527
H          -1.1583609     0.2049367     1.7695074
H          -1.9428497    -1.2939311     1.2882606
H           0.5161567    -1.6382520     1.7360680
H           0.1021607    -2.0253030     0.0671094
H           1.3673772     0.5736441     1.0493796
H           6.9920891     1.6908869    -0.0560643
H           6.0384224     0.9780687     2.1283164
H           3.8691844    -0.2525153     2.1958268
H           3.6168171    -0.0744794    -2.0768945
H           5.7809959     1.1593960    -2.1620453
29
369_C12H16O_5-6-10-9 (105,) energy =    -542.1409450
C           0.2071211    -0.1851719    -1.6163005
C          -1.1670844     0.4148110    -1.2762294
C          -1.6496246    -0.0273990     0.1140905
C          -0.6039444     0.2922306     1.1933973
C           0.7649744    -0.3178985     0.8469742
C           1.2385658     0.1401463    -0.5368073
O           2.4677358    -0.5104420    -0.9237713
C           6.0291441     0.8367909     0.7885401
C           5.4442113    -0.3538491     1.2243791
C           4.2422038    -0.7943738     0.6677772
C           3.6264682    -0.0451470    -0.3392919
C           4.2121038     1.1459571    -0.7829154
C           5.4095206     1.5835754    -0.2164335
H           0.1300008    -1.2782121    -1.6974655
H           0.5675439     0.1806202    -2.5848970
H          -1.1019493     1.5126527    -1.3034322
H          -1.8967778     0.1294237    -2.0439590
H          -2.6052494     0.4550484     0.3552248
H          -1.8384830    -1.1108817     0.1039187
H          -0.5031205     1.3835528     1.2888655
H          -0.9379666    -0.0738448     2.1720861
H           1.5101369    -0.0503540     1.6055259
H           0.6937368    -1.4146053     0.8372869
H           1.4108100     1.2280579    -0.5157329
H           6.9639492     1.1779243     1.2245833
H           5.9224368    -0.9425096     2.0030249
H           3.7775210    -1.7210134     0.9903676
H           3.7314617     1.7084451    -1.5783893
H           5.8638472     2.5065211    -0.5675892
29
369_C12H16O_5-6-10-9 (120,) energy =    -542.1415051
C           0.2121398    -0.2885251    -1.5989827
C          -1.1649379     0.3373935    -1.3229788
C          -1.6592079     0.0158609     0.0962332
C          -0.6235046     0.4278583     1.1538901
C           0.7484571    -0.2075746     0.8723799
C           1.2328828     0.1299425    -0.5418281
O           2.4622508    -0.5578168    -0.8499463
C           6.0543096     0.8026211     0.7864304
C           5.5765795    -0.4773389     1.0751403
C           4.3615866    -0.9129719     0.5451273
C           3.6227002    -0.0707809    -0.2914488
C           4.1023773     1.2099945    -0.5920799
C           5.3122842     1.6418685    -0.0479271
H           0.1356836    -1.3844705    -1.5862343
H           0.5806365    -0.0071939    -2.5924788
H          -1.1000285     1.4289137    -1.4440960
H          -1.8881520    -0.0136884    -2.0692624
H          -2.6170456     0.5163073     0.2864867
H          -1.8478333    -1.0646519     0.1773972
H          -0.5246048     1.5235533     1.1571046
H          -0.9662360     0.1458472     2.1570628
H           1.4894536     0.1249882     1.6093379
H           0.6792079    -1.3010630     0.9568526
H           1.4013376     1.2152336    -0.6134673
H           6.9983575     1.1419016     1.2033968
H           6.1475213    -1.1393704     1.7211345