20
331_C8H10FN_0-4-12-10 (-165,) energy =    -465.4522714
C           1.8169559    -1.9463677    -0.4424780
H           2.1647251    -2.1707123    -1.4536614
H           0.7244823    -1.9966259    -0.4553267
H           2.1797442    -2.7364937     0.2331546
N           2.1861016    -0.6073685    -0.0259090
H           1.4890816    -0.1266369     0.5220351
C           5.8909539     1.2754719     0.7313386
H           6.8271094     1.7845750     0.9373146
C           4.6813060     1.8061835     1.1828428
H           4.6219172     2.7313106     1.7469678
C           3.5205872     1.1193293     0.8963603
F           2.3298996     1.6216656     1.3422396
C           3.4614265    -0.0988766     0.1863155
C           4.6937894    -0.6159380    -0.2879345
C           4.8080999    -1.8615550    -1.1447145
H           4.3063701    -1.7408064    -2.1126280
H           4.3920376    -2.7546254    -0.6682753
H           5.8619364    -2.0688021    -1.3536208
C           5.8730957     0.0857552     0.0092648
H           6.8110906    -0.3250641    -0.3562111
20
331_C8H10FN_0-4-12-10 (-150,) energy =    -465.4538317
C           1.8519368    -1.9657762    -0.3380919
H           2.2142466    -2.3679018    -1.2865957
H           0.7611601    -2.0447250    -0.3465690
H           2.2313131    -2.6030740     0.4762150
N           2.1901576    -0.5589013    -0.1771880
H           1.4807449    -0.0333224     0.3138092
C           5.8994700     1.2153730     0.8052085
H           6.8386281     1.6936594     1.0649464
C           4.6864457     1.7751812     1.2095513
H           4.6289323     2.6901414     1.7901480
C           3.5199760     1.1274003     0.8573445
F           2.3255589     1.6565579     1.2576121
C           3.4636760    -0.0738029     0.1230067
C           4.6987526    -0.6087710    -0.3186567
C           4.7947842    -1.8116975    -1.2332151
H           4.2053167    -1.6686714    -2.1468548
H           4.4530589    -2.7414128    -0.7649800
H           5.8347117    -1.9652676    -1.5367450
C           5.8842566     0.0447796     0.0514058
H           6.8258005    -0.3795757    -0.2885355
20
331_C8H10FN_0-4-12-10 (-135,) energy =    -465.4552106
C           1.8816638    -1.9637733    -0.2068739
H           2.3246059    -2.5466648    -1.0168427
H           0.7954457    -2.0581915    -0.2938322
H           2.1905769    -2.4127557     0.7504368
N           2.2171342    -0.5443712    -0.3153537
H           1.4940915     0.0357748     0.0911599
C           5.9033627     1.1801653     0.8412054
H           6.8396377     1.6417019     1.1395074
C           4.6870782     1.7442372     1.2287716
H           4.6271861     2.6430878     1.8337187
C           3.5212941     1.1192819     0.8294417
F           2.3237326     1.6534591     1.2086239
C           3.4781966    -0.0551415     0.0572162
C           4.7163390    -0.5912915    -0.3672664
C           4.7963323    -1.7652132    -1.3161292
H           4.1046800    -1.6390387    -2.1573598
H           4.5568702    -2.7219347    -0.8357851
H           5.8078958    -1.8519494    -1.7243744
C           5.9004603     0.0320368     0.0520960
H           6.8465450    -0.3905014    -0.2773988
20
331_C8H10FN_0-4-12-10 (-120,) energy =    -465.4560392
C           1.8700618    -1.9361530    -0.0937696
H           2.5012598    -2.6576195    -0.6161527
H           0.8394478    -2.1026489    -0.4213865
H           1.9316808    -2.1453749     0.9862976
N           2.2438920    -0.5623280    -0.4447203
H           1.5093622     0.0756999    -0.1580346
C           5.8883213     1.1285308     0.8899428
H           6.8175686     1.5774602     1.2276250
C           4.6654080     1.6768524     1.2785834
H           4.5958539     2.5474280     1.9225583
C           3.5062058     1.0699663     0.8290338
F           2.3031992     1.5914310     1.2019521
C           3.4861553    -0.0610215    -0.0019464
C           4.7305174    -0.5831824    -0.4196021
C           4.8063285    -1.7266014    -1.4024669
H           4.0171403    -1.6418640    -2.1576747
H           4.6946719    -2.7062296    -0.9189349
H           5.7740588    -1.7287464    -1.9138219
C           5.9070976     0.0163748     0.0498159
H           6.8608549    -0.3908928    -0.2768520
20
331_C8H10FN_0-4-12-10 (-105,) energy =    -465.4559301
C           1.8567184    -1.8837459     0.0113807
H           2.5659228    -2.6674566    -0.2674176
H           0.8831110    -2.1495922    -0.4120671
H           1.7731840    -1.8726288     1.1097406
N           2.2770495    -0.5953435    -0.5578866
H           1.5405409     0.0856347    -0.3956850
C           5.8656981     1.0928993     0.9286469
H           6.7841500     1.5357308     1.3026425
C           4.6320200     1.6081397     1.3283242
H           4.5460735     2.4431932     2.0158726
C           3.4852945     1.0111047     0.8315013
F           2.2720112     1.4983294     1.2103152
C           3.4976403    -0.0641645    -0.0668394
C           4.7508706    -0.5655749    -0.4765757
C           4.8339776    -1.6916068    -1.4774439
H           4.0121831    -1.6267468    -2.1978320
H           4.7690877    -2.6771341    -0.9964507
H           5.7841281    -1.6603478    -2.0201384
C           5.9147000     0.0213931     0.0374596
H           6.8789968    -0.3631383    -0.2856320
20
331_C8H10FN_0-4-12-10 (-90,) energy =    -465.4548051
C           1.8188153    -1.8104477     0.1322441
H           2.5419413    -2.6297877     0.0738975
H           0.8825105    -2.1566129    -0.3173910
H           1.6397239    -1.5869954     1.1958334
N           2.3148814    -0.6572665    -0.6359360
H           1.5928416     0.0597598    -0.6200479
C           5.8547456     1.0661437     0.9329909
H           6.7629085     1.5109348     1.3296202
C           4.6102604     1.5373775     1.3529830
H           4.5071770     2.3388219     2.0772225
C           3.4774193     0.9383486     0.8251332
F           2.2535623     1.3787769     1.2201057
C           3.5190071    -0.0878107    -0.1260076
C           4.7809412    -0.5569670    -0.5412107
C           4.8814839    -1.6677390    -1.5571582
H           4.0681223    -1.5974886    -2.2851608
H           4.8052557    -2.6565767    -1.0846013
H           5.8410136    -1.6328492    -2.0829603
C           5.9317078     0.0325986    -0.0004404
H           6.9056502    -0.3215756    -0.3288539
20
331_C8H10FN_0-4-12-10 (-75,) energy =    -465.4537310
C           1.5730865    -1.6465571     0.3408851
H           2.1665926    -2.5346216     0.6121380
H           0.6592435    -1.9746336    -0.1641460
H           1.2842516    -1.1318814     1.2603623
N           2.2835390    -0.7037834    -0.5347289
H           2.4407116    -1.1380444    -1.4384609
C           5.8339193     1.0762887     0.9328373
H           6.7356050     1.5524146     1.3064973
C           4.5917157     1.4172591     1.4696552
H           4.4829268     2.1605100     2.2527743
C           3.4596273     0.7989462     0.9642691
F           2.2516702     1.1368705     1.4740820
C           3.5027815    -0.1834537    -0.0359477
C           4.7647944    -0.5163230    -0.5737298
C           4.8784612    -1.5409838    -1.6801278
H           4.4481627    -1.1803327    -2.6252629
H           4.3666524    -2.4781234    -1.4273957
H           5.9271025    -1.7809716    -1.8781129
C           5.9102475     0.1235021    -0.0813654
H           6.8782554    -0.1395418    -0.5004429
20
331_C8H10FN_0-4-12-10 (-60,) energy =    -465.4553474
C           1.4738560    -1.5726203     0.4019353
H           1.9903573    -2.4119156     0.8950843
H           0.6267785    -1.9689022    -0.1659614
H           1.0848811    -0.9074366     1.1734198
N           2.3342113    -0.8182751    -0.5171823
H           2.5290276    -1.3690145    -1.3445437
C           5.8260859     1.0793669     0.9464390
H           6.7164727     1.5777455     1.3175169
C           4.5814856     1.3553896     1.5124513
H           4.4570868     2.0720826     2.3177919
C           3.4619253     0.7116611     1.0117796
F           2.2524000     1.0171013     1.5478256
C           3.5167348    -0.2400674    -0.0190981
C           4.7845564    -0.5062807    -0.5879077
C           4.9186308    -1.4981376    -1.7211881
H           4.4128950    -1.1560795    -2.6353725
H           4.4962274    -2.4787365    -1.4637008
H           5.9709051    -1.6525238    -1.9762712
C           5.9135870     0.1617164    -0.0989111
H           6.8810867    -0.0545311    -0.5451360
20
331_C8H10FN_0-4-12-10 (-45,) energy =    -465.4558877
C           1.3834651    -1.4988599     0.4281137
H           1.8156363    -2.1696942     1.1874466
H           0.6738911    -2.0709953    -0.1763704
H           0.8359079    -0.7093573     0.9419985
N           2.3868534    -0.9293784    -0.4754271
H           2.6203217    -1.5822154    -1.2113092
C           5.8296421     1.0781478     0.9603597
H           6.7117775     1.5980855     1.3209205
C           4.5913587     1.2930392     1.5628856
H           4.4616909     1.9820997     2.3913006
C           3.4795264     0.6229403     1.0784577
F           2.2780791     0.8834536     1.6603813
C           3.5350373    -0.2970513     0.0184774
C           4.7991154    -0.4983683    -0.5914538
C           4.9368228    -1.4513675    -1.7564336
H           4.3356067    -1.1380745    -2.6215198
H           4.6240436    -2.4727488    -1.4958002
H           5.9771614    -1.5069184    -2.0888932
C           5.9165274     0.1930403    -0.1132640
H           6.8768853     0.0223323    -0.5934391
20
331_C8H10FN_0-4-12-10 (-30,) energy =    -465.4560582
C           1.3251446    -1.4123834     0.3416570
H           1.6131772    -1.9208322     1.2741460
H           0.6969122    -2.0910859    -0.2421068
H           0.7307859    -0.5359827     0.6014692
N           2.4683758    -1.0427421    -0.4911579
H           2.7294818    -1.7832361    -1.1261168
C           5.8534731     1.0904645     0.8963662
H           6.7239380     1.6402022     1.2403776
C           4.6197315     1.2631804     1.5201380
H           4.4821390     1.9441910     2.3540085
C           3.5208050     0.5544354     1.0610627
F           2.3274648     0.7719352     1.6802778
C           3.5829659    -0.3571656    -0.0064581
C           4.8445438    -0.5161025    -0.6381558
C           4.9856192    -1.4591947    -1.8096696
H           4.3294387    -1.1776300    -2.6449189
H           4.7402496    -2.4976163    -1.5405463
H           6.0128084    -1.4596854    -2.1846869
C           5.9480247     0.2071804    -0.1785782
H           6.9036103     0.0665697    -0.6777709
20
331_C8H10FN_0-4-12-10 (-15,) energy =    -465.4558391
C           1.2719338    -1.3389646     0.2787842
H           1.4032599    -1.7894092     1.2735557
H           0.6473168    -2.0054640    -0.3229709
H           0.7410037    -0.3939992     0.4013928
N           2.5228744    -1.1412809    -0.4435859
H           2.8006039    -1.9479200    -0.9827980
C           5.8495118     1.1318760     0.8577094
H           6.7072066     1.7163109     1.1754587
C           4.6279789     1.2578809     1.5149175
H           4.4890157     1.9310168     2.3549938
C           3.5447082     0.5023790     1.0937274
F           2.3698004     0.6645111     1.7655119
C           3.6072331    -0.3999538     0.0178020
C           4.8584953    -0.5136915    -0.6460700
C           4.9966440    -1.4505261    -1.8219966
H           4.2756886    -1.2143342    -2.6164319
H           4.8334184    -2.5023184    -1.5404236
H           6.0000044    -1.3879968    -2.2522670
C           5.9474733     0.2473678    -0.2162682
H           6.8930973     0.1406233    -0.7421689
20
331_C8H10FN_0-4-12-10 (0,) energy =    -465.4553166
C           1.1991642    -1.2964730     0.1482901
H           1.2489479    -1.5031407     1.2193216
H           0.6636956    -2.1208188    -0.3321252
H           0.6181702    -0.3744835     0.0057709
N           2.5342214    -1.2462218    -0.4258486
H           2.5915704    -1.5427023    -1.3877857
C           5.7665179     1.2080553     0.7669598
H           6.6060371     1.8260900     1.0692924
C           4.5467494     1.3039297     1.4329060
H           4.3889141     1.9915598     2.2578272
C           3.4848465     0.5099776     1.0286780
F           2.3057817     0.6503664     1.6984795
C           3.5754008    -0.4203244    -0.0215427
C           4.8261586    -0.5071219    -0.6905541
C           4.9955017    -1.4885567    -1.8246176
H           4.3640243    -1.2399092    -2.6917553
H           4.7306261    -2.5090459    -1.5171212
H           6.0304801    -1.5005230    -2.1775939
C           5.8886897     0.3049305    -0.2891224
H           6.8352921     0.2172819    -0.8168878
20
331_C8H10FN_0-4-12-10 (15,) energy =    -465.4558393
C           1.1773235    -1.2530150     0.0991862
H           1.0990177    -1.4040301     1.1767037
H           0.6168230    -2.0497830    -0.3983337
H           0.7058206    -0.2903318    -0.1467579
N           2.5643122    -1.3545265    -0.3390356
H           2.6561146    -1.6882825    -1.2871908
C           5.7372475     1.2313628     0.7454731
H           6.5614130     1.8822304     1.0198678
C           4.5375615     1.2776512     1.4515386
H           4.3821874     1.9541721     2.2860067
C           3.4968678     0.4383221     1.0852226
F           2.3451147     0.5176921     1.8098155
C           3.5845223    -0.4781391     0.0231363
C           4.8166765    -0.5185150    -0.6834017
C           4.9909733    -1.4912955    -1.8248523
H           4.3084416    -1.2798855    -2.6625637
H           4.8019450    -2.5260922    -1.5087301
H           6.0082858    -1.4441135    -2.2231514
C           5.8608528     0.3313784    -0.3128705
H           6.7926474     0.2799295    -0.8707944
20
331_C8H10FN_0-4-12-10 (30,) energy =    -465.4560583
C           1.1728028    -1.2228368     0.0458766
H           0.9647526    -1.2856987     1.1143167
H           0.6009684    -2.0052213    -0.4610119
H           0.8203984    -0.2450480    -0.3157643
N           2.5886834    -1.4629496    -0.2277370
H           2.7329261    -1.8903045    -1.1312084
C           5.7057160     1.2356392     0.7394862
H           6.5123894     1.9185858     0.9864480
C           4.5326971     1.2306284     1.4912157
H           4.3850356     1.8919504     2.3390223
C           3.5174194     0.3470927     1.1609170
F           2.3987169     0.3544358     1.9376639
C           3.5972261    -0.5497856     0.0820750
C           4.8020331    -0.5397766    -0.6691433
C           4.9736851    -1.4927122    -1.8284540
H           4.2217749    -1.3310744    -2.6155005
H           4.8918843    -2.5422046    -1.5132217
H           5.9556007    -1.3649532    -2.2925034
C           5.8272494     0.3457460    -0.3272586
H           6.7392482     0.3353905    -0.9190129
20
331_C8H10FN_0-4-12-10 (45,) energy =    -465.4558878
C           1.1486810    -1.1196264    -0.0366071
H           0.8401881    -0.9340222     0.9918025
H           0.5659780    -1.9606437    -0.4231039
H           0.9108719    -0.2258728    -0.6349241
N           2.5652773    -1.4904713    -0.0933294
H           2.7648182    -2.0217468    -0.9300742
C           5.6543459     1.2819513     0.7519257
H           6.4509704     1.9857836     0.9721518
C           4.5036853     1.2546046     1.5379070
H           4.3668504     1.9141060     2.3889259
C           3.5049398     0.3413617     1.2406775
F           2.4118458     0.3106785     2.0494848
C           3.5735888    -0.5512620     0.1582924
C           4.7540447    -0.5193585    -0.6265250
C           4.9169609    -1.4676025    -1.7921402
H           4.1211953    -1.3447673    -2.5409099
H           4.9054105    -2.5199125    -1.4751390
H           5.8691639    -1.2937791    -2.3010786
C           5.7689625     0.3901925    -0.3135727
H           6.6648169     0.4000746    -0.9294859
20
331_C8H10FN_0-4-12-10 (60,) energy =    -465.4553471
C           1.2009166    -1.1003362    -0.1428071
H           0.8644887    -0.6103471     0.7714114
H           0.5686413    -1.9769646    -0.3126485
H           1.0640530    -0.4000180    -0.9826290
N           2.5869474    -1.5542394     0.0173579
H           2.8356356    -2.1896363    -0.7309979
C           5.6579764     1.2677549     0.7511507
H           6.4481416     1.9849827     0.9513509
C           4.5431737     1.2032662     1.5869222
H           4.4315810     1.8437839     2.4558336
C           3.5555711     0.2715149     1.3129301
F           2.4934521     0.1948995     2.1551954
C           3.5982616    -0.5945734     0.2085362
C           4.7372718    -0.5223728    -0.6276907
C           4.8678208    -1.4427779    -1.8201332
H           4.0018269    -1.3730798    -2.4920705
H           4.9652019    -2.4968111    -1.5234138
H           5.7567973    -1.1918026    -2.4057219
C           5.7475305     0.4024073    -0.3377346
H           6.6159430     0.4471574    -0.9902553
20
331_C8H10FN_0-4-12-10 (75,) energy =    -465.4537309
C           1.2738264    -1.1076965    -0.2594928
H           0.8974277    -0.4332408     0.5132669
H           0.5908041    -1.9602467    -0.3260300
H           1.2661791    -0.5712278    -1.2220916
N           2.6022417    -1.5972115     0.1355541
H           2.9004467    -2.3190755    -0.5125318
C           5.6682973     1.2591270     0.7426931
H           6.4569126     1.9847021     0.9187275
C           4.5946306     1.1673387     1.6294573
H           4.5162787     1.7942065     2.5117401
C           3.6100217     0.2246910     1.3818828
F           2.5735362     0.1243954     2.2472928
C           3.6181517    -0.6182135     0.2607876
C           4.7117289    -0.5186232    -0.6262292
C           4.8008644    -1.4230815    -1.8349497
H           3.8824299    -1.3999805    -2.4349502
H           4.9807888    -2.4711891    -1.5563628
H           5.6268399    -1.1193991    -2.4845464
C           5.7215872     0.4178120    -0.3670642
H           6.5597111     0.4885611    -1.0558244
20
331_C8H10FN_0-4-12-10 (90,) energy =    -465.4548051
C           1.4853534    -1.1785010    -0.5446716
H           1.0151041    -0.3174885    -0.0439220
H           0.7548028    -1.9915405    -0.6073735
H           1.7427329    -0.8794028    -1.5654213
N           2.6879519    -1.6747208     0.1434658
H           2.4042542    -2.0080935     1.0622145
C           5.6801470     1.2697189     0.7260054
H           6.4512705     2.0197964     0.8765579
C           4.7068717     1.0684543     1.7055084
H           4.6812441     1.6435938     2.6253019
C           3.7390637     0.1046315     1.4705960
F           2.7791782    -0.1087086     2.4091652
C           3.7079695    -0.6938188     0.3212866
C           4.6943992    -0.4804716    -0.6617793
C           4.7003985    -1.3075554    -1.9235120
H           4.0261500    -0.8905271    -2.6840364
H           4.3589080    -2.3260054    -1.7170563
H           5.7020642    -1.3445821    -2.3636000
C           5.6675653     0.5032501    -0.4392414
H           6.4354349     0.6605639    -1.1925589
20
331_C8H10FN_0-4-12-10 (105,) energy =    -465.4559301
C           1.5324236    -1.2669722    -0.6513205
H           1.0346135    -0.3253900    -0.3700665
H           0.7957841    -2.0759180    -0.6219559
H           1.8811037    -1.1718635    -1.6829591
N           2.6529913    -1.6240572     0.2304630
H           2.2841263    -1.8323728     1.1540584
C           5.7022585     1.2699774     0.7451280
H           6.4898477     2.0045703     0.8851376
C           4.7647216     1.0541365     1.7558768
H           4.7819784     1.6032658     2.6916026
C           3.7742249     0.1116597     1.5347064
F           2.8494451    -0.1127351     2.5080373
C           3.6773789    -0.6514055     0.3635004
C           4.6407100    -0.4361329    -0.6442357
C           4.6200312    -1.2571712    -1.9099612
H           3.9530691    -0.8276001    -2.6698686
H           4.2663636    -2.2724715    -1.7035727
H           5.6192139    -1.3133872    -2.3535309
C           5.6339394     0.5297187    -0.4347409
H           6.3788193     0.6883465    -1.2106995
20
331_C8H10FN_0-4-12-10 (120,) energy =    -465.4560392
C           1.5623378    -1.3531469    -0.7265420
H           1.0947379    -0.3557152    -0.7020499
H           0.7842613    -2.1053740    -0.5653899
H           1.9709411    -1.5123747    -1.7262936
N           2.5954897    -1.5390559     0.2973277
H           2.1605004    -1.6342068     1.2086607
C           5.7512778     1.2445734     0.7604023
H           6.5646344     1.9514552     0.8939572
C           4.8410616     1.0227698     1.7945849
H           4.9041307     1.5393476     2.7467466
C           3.8174764     0.1171418     1.5794969
F           2.9180715    -0.1089233     2.5785913
C           3.6437224    -0.5987904     0.3847916
C           4.5940666    -0.3939721    -0.6401047
C           4.5528549    -1.2017123    -1.9148751
H           3.8494608    -0.7911684    -2.6515107
H           4.2479935    -2.2339610    -1.7102795
H           5.5395171    -1.2210170    -2.3882837
C           5.6207307     0.5374423    -0.4337401
H           6.3486955     0.6888001    -1.2270798
20
331_C8H10FN_0-4-12-10 (135,) energy =    -465.4552106
C           1.6046352    -1.4479516    -0.7805200
H           1.2831549    -0.4411434    -1.0910746
H           0.7171658    -2.0128096    -0.4810541
H           2.0339461    -1.9528064    -1.6481733
N           2.5302863    -1.4363250     0.3517534
H           2.0322568    -1.4176025     1.2327922
C           5.8049684     1.2063429     0.7907444
H           6.6450270     1.8809033     0.9244617
C           4.9073372     0.9860675     1.8364348
H           5.0058794     1.4713553     2.8019737
C           3.8507749     0.1227868     1.6184733
F           2.9588028    -0.0955993     2.6284096
C           3.6163732    -0.5498104     0.4059864
C           4.5583651    -0.3534436    -0.6307063
C           4.4939699    -1.1280597    -1.9271067
H           3.6980065    -0.7787299    -2.5962845
H           4.3201226    -2.1942714    -1.7401805
H           5.4389948    -1.0330626    -2.4705690
C           5.6211774     0.5360277    -0.4166502
H           6.3374725     0.6818793    -1.2215297
20
331_C8H10FN_0-4-12-10 (150,) energy =    -465.4538317
C           1.6316088    -1.5783539    -0.7999941
H           1.3430397    -0.6615795    -1.3379710
H           0.7159472    -2.0756231    -0.4677496
H           2.1280630    -2.2487189    -1.5048193
N           2.4474234    -1.3248903     0.3788916
H           1.9035119    -1.2229810     1.2240853
C           5.8312089     1.1713852     0.8160761
H           6.6960767     1.8123542     0.9553656
C           4.9277806     0.9676865     1.8603964
H           5.0448375     1.4318654     2.8342483
C           3.8421985     0.1467849     1.6324439
F           2.9422765    -0.0512065     2.6413027
C           3.5705099    -0.4971801     0.4089995
C           4.5173055    -0.3175694    -0.6292732
C           4.4399242    -1.0534302    -1.9503281
H           3.5773099    -0.7620251    -2.5597234
H           4.3851238    -2.1386373    -1.8020325
H           5.3376832    -0.8500217    -2.5417833
C           5.6137391     0.5276592    -0.3992659
H           6.3296760     0.6621966    -1.2064068
20
331_C8H10FN_0-4-12-10 (165,) energy =    -465.4522715
C           1.6529119    -1.6878624    -0.7922873
H           1.3398815    -0.8976397    -1.4922555
H           0.7500477    -2.1908193    -0.4344329
H           2.2389053    -2.4259635    -1.3450828
N           2.3634383    -1.1902971     0.3697372
H           1.7877783    -1.0307100     1.1823440
C           5.8793955     1.0998250     0.8573446
H           6.7763789     1.6905270     1.0138411
C           4.9474737     0.9405943     1.8844421
H           5.0738741     1.3889013     2.8645787
C           3.8237067     0.1821504     1.6334095
F           2.8971940     0.0273111     2.6266290
C           3.5328450    -0.4409259     0.4009872
C           4.4980651    -0.2921404    -0.6272122
C           4.3942250    -0.9669570    -1.9809252
H           3.4839176    -0.7026904    -2.5279018
H           4.4222469    -2.0602877    -1.8971933
H           5.2428094    -0.6714642    -2.6052271
C           5.6390479     0.4838091    -0.3673562
H           6.3680715     0.5935565    -1.1665179
20
331_C8H10FN_0-4-12-10 (180,) energy =    -465.4512770
C           1.6740589    -1.7834839    -0.7626563
H           1.3494421    -1.1419022    -1.5946968
H           0.7854458    -2.2848637    -0.3685956
H           2.3348270    -2.5585793    -1.1621811
N           2.2834776    -1.0544099     0.3282283
H           1.7148065    -0.9225694     1.1486642
C           5.9116147     1.0254946     0.8975774
H           6.8362183     1.5653981     1.0750424
C           4.9477985     0.9195753     1.9022554
H           5.0764135     1.3605188     2.8854879
C           3.7903682     0.2240706     1.6258320
F           2.8360531     0.1159892     2.5994482
C           3.4975863    -0.3928988     0.3896618
C           4.4823298    -0.2754811    -0.6246562
C           4.3408773    -0.8804959    -2.0083417
H           3.4083517    -0.5946123    -2.5043300
H           4.3845773    -1.9761811    -1.9947200
H           5.1620652    -0.5368955    -2.6446126
C           5.6607335     0.4309932    -0.3355713
H           6.4056108     0.5134016    -1.1234386
