32
119_C18H14_4-6-27-25 (-165,) energy =    -694.3494959
C           5.3699441     1.5686373     1.7680833
H           6.0434985     2.3542306     2.0992125
C           5.5864255     0.2404615     2.1264984
H           6.4364398    -0.0355900     2.7447590
C           4.7132593    -0.7444824     1.6784691
H           4.9486687    -1.7742366     1.9213406
C           3.6050360    -0.4702030     0.8497244
C           3.3502349     0.8987981     0.5527153
C           4.2566321     1.8783415     0.9939339
H           4.0447340     2.9154081     0.7485767
C          -0.1469291     2.5916124    -1.3154406
H          -1.0255330     3.0360989    -1.7752741
C          -0.2562237     1.9185353    -0.0958337
H          -1.2206130     1.8427040     0.3997963
C           0.8693175     1.3461716     0.4941625
H           0.7800415     0.8248890     1.4430222
C           2.1266677     1.4336993    -0.1249187
C           2.2268928     2.1242386    -1.3416934
H           3.1957458     2.2044015    -1.8279516
C           1.0983812     2.6935017    -1.9360099
H           1.1951808     3.2177726    -2.8832677
C           1.0043025    -3.7817618    -0.2149845
H           0.3479850    -4.6103594    -0.4669580
C           0.9608857    -2.5944586    -0.9439421
H           0.2709868    -2.4894368    -1.7772536
C           1.7962811    -1.5272628    -0.6162382
H           1.7541236    -0.6377571    -1.2289107
C           2.7301041    -1.6153016     0.4344665
C           2.7358371    -2.8178545     1.1726850
H           3.3771509    -2.9223827     2.0403162
C           1.8996083    -3.8838630     0.8496375
H           1.9398419    -4.7918149     1.4459469
32
119_C18H14_4-6-27-25 (-150,) energy =    -694.3541305
C           5.4422964     1.5413218     1.6873122
H           6.1398869     2.3161907     1.9932999
C           5.6610441     0.2087820     2.0309174
H           6.5367354    -0.0774921     2.6072287
C           4.7552600    -0.7639204     1.6194060
H           4.9683534    -1.8039298     1.8458774
C           3.6153514    -0.4590803     0.8504301
C           3.3662296     0.9082199     0.5543667
C           4.3021548     1.8741255     0.9614892
H           4.0970436     2.9160754     0.7315358
C          -0.1941222     2.5283213    -1.2562755
H          -1.0894705     2.9522825    -1.7030513
C          -0.2860707     1.7502607    -0.0995045
H          -1.2543128     1.5715941     0.3609207
C           0.8607486     1.2034542     0.4732662
H           0.7827318     0.6023484     1.3743849
C           2.1243698     1.4243988    -0.0983821
C           2.2047346     2.2164582    -1.2541543
H           3.1761705     2.3956636    -1.7078652
C           1.0555666     2.7598939    -1.8316570
H           1.1391191     3.3640144    -2.7314362
C           0.9862188    -3.7245331    -0.2136540
H           0.3249168    -4.5467312    -0.4736601
C           1.1195478    -2.6280136    -1.0664394
H           0.5652683    -2.5927429    -2.0007105
C           1.9613461    -1.5689497    -0.7311583
H           2.0626383    -0.7398517    -1.4211412
C           2.7152226    -1.5844185     0.4565726
C           2.5526063    -2.6909322     1.3120908
H           3.0715162    -2.7127252     2.2654628
C           1.7071698    -3.7483706     0.9805015
H           1.6035319    -4.5861688     1.6652490
32
119_C18H14_4-6-27-25 (-135,) energy =    -694.3565667
C           5.4903657     1.5215975     1.6214373
H           6.2108902     2.2852397     1.9016752
C           5.7136360     0.1833832     1.9413012
H           6.6156662    -0.1159127     2.4682675
C           4.7763086    -0.7762408     1.5683900
H           4.9722413    -1.8233684     1.7809934
C           3.6013032    -0.4410217     0.8723252
C           3.3593121     0.9254862     0.5782048
C           4.3230258     1.8777030     0.9507422
H           4.1250350     2.9242100     0.7357000
C          -0.2361323     2.4970386    -1.2044073
H          -1.1406246     2.9066725    -1.6461255
C          -0.3150051     1.6593803    -0.0893324
H          -1.2823710     1.4194449     0.3442600
C           0.8434898     1.1305065     0.4768560
H           0.7737444     0.4841085     1.3464467
C           2.1067868     1.4302628    -0.0586879
C           2.1725027     2.2793236    -1.1751154
H           3.1422171     2.5163153    -1.6053088
C           1.0123811     2.8050674    -1.7457151
H           1.0860001     3.4540359    -2.6146115
C           0.9935938    -3.6969532    -0.2258107
H           0.3437265    -4.5233973    -0.5008870
C           1.2821339    -2.6902173    -1.1495900
H           0.8617327    -2.7329392    -2.1509696
C           2.1113169    -1.6268142    -0.7976736
H           2.3345997    -0.8568516    -1.5287280
C           2.6814488    -1.5497652     0.4845249
C           2.3793073    -2.5691366     1.4039177
H           2.7875239    -2.5164911     2.4096104
C           1.5452300    -3.6310057     1.0540692
H           1.3222884    -4.4033375     1.7857434
32
119_C18H14_4-6-27-25 (-120,) energy =    -694.3567524
C           5.5271496     1.5119797     1.5635602
H           6.2638888     2.2673339     1.8236199
C           5.7605384     0.1675085     1.8494205
H           6.6864183    -0.1432364     2.3259792
C           4.8005488    -0.7823477     1.5076455
H           4.9906914    -1.8346975     1.7005961
C           3.5934063    -0.4232434     0.8859979
C           3.3510778     0.9438824     0.6041029
C           4.3344532     1.8864970     0.9494309
H           4.1377865     2.9369842     0.7535192
C          -0.2717790     2.4858686    -1.1489990
H          -1.1828123     2.8864565    -1.5855631
C          -0.3381591     1.6089451    -0.0640637
H          -1.3025235     1.3288674     0.3517707
C           0.8287852     1.0914602     0.4955277
H           0.7662570     0.4154579     1.3424870
C           2.0889720     1.4421067    -0.0161605
C           2.1410011     2.3285995    -1.1045190
H           3.1072940     2.6023966    -1.5201431
C           0.9731329     2.8434642    -1.6679896
H           1.0375261     3.5217972    -2.5149174
C           1.0044074    -3.6789729    -0.2366245
H           0.3646718    -4.5103596    -0.5205017
C           1.4575976    -2.7787903    -1.2036771
H           1.1765289    -2.9111261    -2.2452465
C           2.2766750    -1.7106590    -0.8414183
H           2.6285533    -1.0169257    -1.5991692
C           2.6574773    -1.5195521     0.4963980
C           2.2042141    -2.4375016     1.4569955
H           2.4924223    -2.3031736     2.4965489
C           1.3807477    -3.5048295     1.0956787
H           1.0336353    -4.1992576     1.8565143
32
119_C18H14_4-6-27-25 (-105,) energy =    -694.3554765
C           5.5322478     1.5195604     1.5284844
H           6.2766588     2.2687880     1.7846075
C           5.7829463     0.1669702     1.7560345
H           6.7295402    -0.1553571     2.1814735
C           4.8115166    -0.7751428     1.4234374
H           5.0078239    -1.8328153     1.5779312
C           3.5765165    -0.3971087     0.8744677
C           3.3225326     0.9748091     0.6358512
C           4.3158542     1.9102374     0.9740334
H           4.1120554     2.9655112     0.8145313
C          -0.3260224     2.5264208    -1.0557945
H          -1.2426447     2.9285346    -1.4790719
C          -0.3792790     1.6221478     0.0067513
H          -1.3391223     1.3219505     0.4190227
C           0.7950019     1.1025732     0.5494586
H           0.7404917     0.4069708     1.3804283
C           2.0498226     1.4781115     0.0427058
C           2.0880720     2.3916149    -1.0240975
H           3.0497967     2.6836437    -1.4377207
C           0.9134958     2.9090904    -1.5700976
H           0.9681385     3.6084592    -2.4004429
C           0.9832697    -3.6449689    -0.2637526
H           0.3451183    -4.4766177    -0.5504587
C           1.6168859    -2.8760015    -1.2420928
H           1.4780751    -3.1108985    -2.2942309
C           2.4365497    -1.8089053    -0.8751796
H           2.9304373    -1.2155546    -1.6396336
C           2.6286555    -1.4844441     0.4759951
C           2.0014457    -2.2753016     1.4503753
H           2.1578004    -2.0455502     2.5015062
C           1.1792130    -3.3423430     1.0844101
H           0.6948794    -3.9384658     1.8536106
32
119_C18H14_4-6-27-25 (-90,) energy =    -694.3538574
C           5.5512118     1.5071646     1.4910325
H           6.2904380     2.2607603     1.7494442
C           5.8331633     0.1523124     1.6614267
H           6.7982531    -0.1670966     2.0455520
C           4.8675221    -0.7953777     1.3273748
H           5.0855589    -1.8537400     1.4432598
C           3.6075126    -0.4212031     0.8362757
C           3.3243448     0.9521816     0.6480346
C           4.3122260     1.8937998     0.9863110
H           4.0880876     2.9495104     0.8600623
C          -0.3476959     2.4968757    -1.0006674
H          -1.2690303     2.8967193    -1.4158219
C          -0.3881797     1.6136736     0.0796052
H          -1.3425237     1.3280066     0.5144007
C           0.7924028     1.0968987     0.6122066
H           0.7467299     0.4209047     1.4591767
C           2.0401108     1.4530283     0.0762776
C           2.0655932     2.3473419    -1.0071753
H           3.0223685     2.6255999    -1.4411866
C           0.8852680     2.8623090    -1.5427345
H           0.9300648     3.5463051    -2.3863589
C           1.0267894    -3.6877278    -0.2861678
H           0.3917692    -4.5237674    -0.5670171
C           1.8465381    -3.0781376    -1.2373970
H           1.8553710    -3.4405899    -2.2621024
C           2.6637945    -2.0061953    -0.8762984
H           3.3044802    -1.5373987    -1.6182868
C           2.6634314    -1.5153217     0.4370167
C           1.8504995    -2.1487652     1.3883528
H           1.8636759    -1.7972803     2.4171611
C           1.0332024    -3.2217165     1.0294949
H           0.4057358    -3.6963337     1.7795759
32
119_C18H14_4-6-27-25 (-75,) energy =    -694.3551689
C           5.4266390     1.4993014     1.8175113
H           6.0836254     2.2546714     2.2404623
C           5.8212492     0.1628011     1.7740239
H           6.7854230    -0.1417886     2.1721832
C           4.9627531    -0.7866383     1.2229599
H           5.2547186    -1.8333583     1.2034226
C           3.7118458    -0.4315327     0.6952771
C           3.3049450     0.9232791     0.7471185
C           4.1824980     1.8661568     1.3103512
H           3.8810460     2.9099016     1.3286899
C          -0.4705637     2.4127985    -0.7056780
H          -1.4182616     2.7998486    -1.0705659
C          -0.0356585     2.7181060     0.5846263
H          -0.6454282     3.3417580     1.2333319
C           1.1816036     2.2202026     1.0494074
H           1.5091459     2.4515552     2.0596041
C           1.9870236     1.4032426     0.2383686
C           1.5362696     1.1051124    -1.0577355
H           2.1463099     0.4855532    -1.7066623
C           0.3215870     1.6055073    -1.5243467
H          -0.0045881     1.3665327    -2.5332567
C           1.1791382    -3.6115672    -0.7378282
H           0.5429868    -4.4164246    -1.0964345
C           2.2812183    -3.2001139    -1.4887615
H           2.5061323    -3.6816190    -2.4370188
C           3.0966486    -2.1657585    -1.0264270
H           3.9546085    -1.8464864    -1.6130311
C           2.8269367    -1.5302361     0.1946370
C           1.7124997    -1.9475824     0.9366012
H           1.4877013    -1.4570575     1.8796101
C           0.8977616    -2.9819983     0.4762885
H           0.0411463    -3.2960337     1.0670712
32
119_C18H14_4-6-27-25 (-60,) energy =    -694.3565835
C           5.4330378     1.5056302     1.7822779
H           6.0932558     2.2596397     2.2024781
C           5.8469508     0.1779392     1.6835607
H           6.8304828    -0.1216478     2.0354209
C           4.9831177    -0.7699580     1.1393948
H           5.2888198    -1.8114172     1.0853243
C           3.7031397    -0.4241968     0.6766458
C           3.2835856     0.9255329     0.7706428
C           4.1664788     1.8659817     1.3285859
H           3.8535740     2.9052654     1.3787505
C          -0.5031970     2.4299756    -0.6344425
H          -1.4527158     2.8217266    -0.9893659
C          -0.0606100     2.7214388     0.6563590
H          -0.6658749     3.3387365     1.3152583
C           1.1594544     2.2181977     1.1086713
H           1.4935951     2.4396437     2.1189636
C           1.9587834     1.4094055     0.2840191
C           1.5000977     1.1245524    -1.0126225
H           2.1063051     0.5092944    -1.6698687
C           0.2833894     1.6306412    -1.4667519
H          -0.0492550     1.4026007    -2.4760552
C           1.2146772    -3.6386691    -0.7523335
H           0.5924141    -4.4553519    -1.1085156
C           2.4331513    -3.3612141    -1.3732504
H           2.7635622    -3.9588179    -2.2189847
C           3.2306695    -2.3121975    -0.9131970
H           4.1768443    -2.0949284    -1.4024460
C           2.8246098    -1.5224684     0.1738107
C           1.5946130    -1.8091140     0.7861528
H           1.2657002    -1.2059640     1.6272773
C           0.7993238    -2.8591251     0.3295769
H          -0.1468744    -3.0698311     0.8211662
32
119_C18H14_4-6-27-25 (-45,) energy =    -694.3567637
C           5.4435482     1.5020470     1.7372801
H           6.1086967     2.2542234     2.1528200
C           5.8705400     0.1837750     1.5852989
H           6.8714407    -0.1112861     1.8887175
C           4.9990015    -0.7624199     1.0521637
H           5.3179114    -1.7977481     0.9713649
C           3.6909817    -0.4306183     0.6582222
C           3.2677022     0.9169017     0.7857623
C           4.1570531     1.8545819     1.3370658
H           3.8338674     2.8888374     1.4175395
C          -0.5176510     2.4672801    -0.5717542
H          -1.4658195     2.8714243    -0.9162339
C          -0.0864596     2.7017449     0.7343314
H          -0.6991653     3.2871425     1.4151101
C           1.1324794     2.1832184     1.1734758
H           1.4595380     2.3617138     2.1946093
C           1.9400745     1.4148707     0.3193605
C           1.4939196     1.1883776    -0.9930426
H           2.1093026     0.6055215    -1.6715233
C           0.2790297     1.7101217    -1.4337915
H          -0.0445422     1.5278613    -2.4552829
C           1.2453797    -3.6960584    -0.7373015
H           0.6375645    -4.5299459    -1.0781730
C           2.5426563    -3.5263045    -1.2220466
H           2.9510155    -4.2259282    -1.9468343
C           3.3213545    -2.4562138    -0.7808183
H           4.3260519    -2.3243180    -1.1736272
C           2.8180925    -1.5262279     0.1445312
C           1.5118759    -1.7144016     0.6274719
H           1.1080575    -1.0205395     1.3576640
C           0.7351481    -2.7861137     0.1912025
H          -0.2706256    -2.9136798     0.5830057
32
119_C18H14_4-6-27-25 (-30,) energy =    -694.3548054
C           5.4454403     1.5047951     1.6970153
H           6.1098209     2.2586968     2.1104627
C           5.8905520     0.2008075     1.4888117
H           6.9083928    -0.0832646     1.7422649
C           5.0181463    -0.7481640     0.9638417
H           5.3606573    -1.7726897     0.8583128
C           3.6823318    -0.4442355     0.6408231
C           3.2510105     0.9000229     0.7993278
C           4.1398935     1.8394139     1.3481231
H           3.8000432     2.8653428     1.4602722
C          -0.5251566     2.5105615    -0.5138893
H          -1.4696738     2.9314668    -0.8481259
C          -0.1191501     2.6601410     0.8125365
H          -0.7476428     3.1963415     1.5189533
C           1.0957522     2.1207074     1.2387961
H           1.4051146     2.2344766     2.2746431
C           1.9222352     1.4146057     0.3504307
C           1.5028506     1.2750276    -0.9827165
H           2.1355216     0.7419991    -1.6861877
C           0.2925900     1.8180214    -1.4101608
H          -0.0110637     1.7034629    -2.4474879
C           1.2588555    -3.7525892    -0.7185978
H           0.6580182    -4.5989535    -1.0404166
C           2.6085189    -3.6738073    -1.0623236
H           3.0680554    -4.4585939    -1.6576753
C           3.3777763    -2.5887584    -0.6445910
H           4.4204483    -2.5357124    -0.9437202
C           2.8176774    -1.5377846     0.1050130
C           1.4604143    -1.6478338     0.4611742
H           1.0055061    -0.8843949     1.0816702
C           0.6914160    -2.7345894     0.0495016
H          -0.3540152    -2.7900065     0.3417473
32
119_C18H14_4-6-27-25 (-15,) energy =    -694.3505223
C           5.4428441     1.5334340     1.6418345
H           6.1007266     2.2949940     2.0514028
C           5.9128613     0.2492310     1.3775704
H           6.9481907    -0.0136551     1.5773883
C           5.0464180    -0.7100366     0.8634588
H           5.4259045    -1.7164852     0.7296655
C           3.6839836    -0.4503159     0.6124945
C           3.2362321     0.8880428     0.7998991
C           4.1180583     1.8370616     1.3442007
H           3.7539136     2.8506484     1.4878597
C          -0.5317207     2.5613651    -0.4593311
H          -1.4723633     3.0004878    -0.7807624
C          -0.1589638     2.6038614     0.8844046
H          -0.8093200     3.0752571     1.6167563
C           1.0516519     2.0417197     1.2945645
H           1.3366882     2.0737125     2.3430561
C           1.9045604     1.4175232     0.3713938
C           1.5204292     1.3877040    -0.9792049
H           2.1761980     0.9193929    -1.7074902
C           0.3148939     1.9535505    -1.3899250
H           0.0374397     1.9238870    -2.4404200
C           1.2571054    -3.8009158    -0.6847417
H           0.6545936    -4.6545075    -0.9834292
C           2.6396582    -3.8100732    -0.8680047
H           3.1271578    -4.6738108    -1.3127133
C           3.4098621    -2.7161654    -0.4792295
H           4.4774018    -2.7511354    -0.6683567
C           2.8292630    -1.5546277     0.0694963
C           1.4363506    -1.5882283     0.2837117
H           0.9467468    -0.7601502     0.7784966
C           0.6635286    -2.6832419    -0.0989747
H          -0.4084685    -2.6645743     0.0797245
32
119_C18H14_4-6-27-25 (0,) energy =    -694.3454010
C           5.4625743     1.5693399     1.4972011
H           6.1198342     2.3480513     1.8739582
C           5.9361479     0.2839073     1.2511536
H           6.9790294     0.0334600     1.4264278
C           5.0674984    -0.6940485     0.7813456
H           5.4797402    -1.6839607     0.6377568
C           3.6935869    -0.4664974     0.5453989
C           3.2416876     0.8738719     0.7255198
C           4.1279771     1.8448547     1.2234814
H           3.7477842     2.8529054     1.3642923
C          -0.5635500     2.6129620    -0.3182767
H          -1.5128093     3.0713534    -0.5823289
C          -0.2340959     2.4013388     1.0210506
H          -0.9262073     2.6950393     1.8060355
C           0.9872770     1.8145650     1.3593254
H           1.2415302     1.6506125     2.4032124
C           1.8919628     1.4181222     0.3637791
C           1.5552116     1.6482375    -0.9797583
H           2.2542059     1.3573062    -1.7591402
C           0.3375167     2.2373179    -1.3177027
H           0.0936139     2.4076222    -2.3631425
C           1.2606514    -3.8838386    -0.6483962
H           0.6591723    -4.7433381    -0.9315915
C           2.6414585    -3.9998455    -0.4935873
H           3.1320795    -4.9568277    -0.6519042
C           3.4083576    -2.8971051    -0.1275867
H           4.4754911    -3.0534971    -0.0334165
C           2.8442437    -1.6175070     0.0742514
C           1.4420103    -1.5409307    -0.0538329
H           0.9255660    -0.6160788     0.1465388
C           0.6700104    -2.6442548    -0.4171978
H          -0.4067011    -2.5255720    -0.5077196
32
119_C18H14_4-6-27-25 (15,) energy =    -694.3505223
C           5.6195820     1.5982043     0.9839373
H           6.3403228     2.3907360     1.1654821
C           5.9814295     0.2592851     1.1114705
H           6.9935936    -0.0162864     1.3952378
C           5.0416597    -0.7357018     0.8623356
H           5.3715284    -1.7672089     0.9072538
C           3.7215231    -0.4531382     0.4572509
C           3.3368273     0.9169447     0.4180982
C           4.3057049     1.9085198     0.6473460
H           3.9936769     2.9483886     0.6038993
C          -0.6612634     2.4756155     0.0079978
H          -1.6643131     2.8836874    -0.0832241
C          -0.3528229     1.5930670     1.0463601
H          -1.1147916     1.3167849     1.7705677
C           0.9323493     1.0669438     1.1633516
H           1.1672533     0.3838818     1.9745120
C           1.9362645     1.4122564     0.2438129
C           1.6175170     2.3090862    -0.7873934
H           2.3850024     2.5863895    -1.5055045
C           0.3284946     2.8321591    -0.9083265
H           0.1000051     3.5188373    -1.7193606
C           1.2057607    -3.8438599    -0.5275148
H           0.5943408    -4.7008761    -0.7968274
C           2.3096813    -3.9962680     0.3110917
H           2.5680492    -4.9764683     0.7034004
C           3.0946335    -2.8964373     0.6504858
H           3.9254095    -3.0526446     1.3302395
C           2.7873510    -1.5960922     0.2010321
C           1.6928055    -1.4763259    -0.6792467
H           1.4596380    -0.5178206    -1.1233451
C           0.9087333    -2.5755168    -1.0252118
H           0.0701838    -2.4370618    -1.7028073
32
119_C18H14_4-6-27-25 (30,) energy =    -694.3548050
C           5.6448748     1.5944797     0.9432958
H           6.3725371     2.3805083     1.1259636
C           6.0162782     0.2527237     1.0041891
H           7.0417031    -0.0274038     1.2299358
C           5.0671453    -0.7356281     0.7602501
H           5.3816131    -1.7744691     0.7564700
C           3.7310609    -0.4318023     0.4382963
C           3.3443186     0.9351798     0.4355804
C           4.3199870     1.9194923     0.6655598
H           4.0108011     2.9611515     0.6651904
C          -0.6841668     2.4170855     0.0455689
H          -1.6959485     2.8037323    -0.0427224
C          -0.3774212     1.4656619     1.0214454
H          -1.1497496     1.1135696     1.7003518
C           0.9188956     0.9665027     1.1342966
H           1.1512199     0.2304765     1.8982065
C           1.9369099     1.4097436     0.2742308
C           1.6178895     2.3729416    -0.6959462
H           2.3944222     2.7237898    -1.3708712
C           0.3183887     2.8692411    -0.8129575
H           0.0911069     3.6087813    -1.5764763
C           1.1894575    -3.8000156    -0.4902794
H           0.5688151    -4.6565005    -0.7395869
C           2.1781083    -3.9059830     0.4881706
H           2.3324616    -4.8467310     1.0103568
C           2.9755024    -2.8066595     0.8030576
H           3.7229276    -2.9049991     1.5848014
C           2.7928740    -1.5627262     0.1710061
C           1.8060881    -1.4832580    -0.8294715
H           1.6700765    -0.5568303    -1.3753716
C           1.0119870    -2.5826895    -1.1497891
H           0.2588214    -2.4885746    -1.9277856
32
119_C18H14_4-6-27-25 (45,) energy =    -694.3567639
C           5.6690563     1.5919496     0.8981410
H           6.3996300     2.3763243     1.0766853
C           6.0520623     0.2516064     0.9018781
H           7.0883337    -0.0264149     1.0744587
C           5.0976345    -0.7351501     0.6685798
H           5.4043511    -1.7766202     0.6315231
C           3.7482475    -0.4234893     0.4271426
C           3.3546002     0.9387302     0.4529649
C           4.3338501     1.9208692     0.6778957
H           4.0240960     2.9617667     0.7127658
C          -0.6983493     2.3567767     0.0845656
H          -1.7169946     2.7259109     0.0002092
C          -0.3883522     1.3529604     1.0050951
H          -1.1647677     0.9418642     1.6450481
C           0.9166665     0.8757922     1.1130219
H           1.1499637     0.0991096     1.8348968
C           1.9409868     1.3943992     0.3040169
C           1.6169448     2.4078406    -0.6125112
H           2.3964887     2.8151191    -1.2512475
C           0.3094329     2.8825734    -0.7245706
H           0.0795255     3.6620818    -1.4464267
C           1.1626250    -3.7569150    -0.4635997
H           0.5245240    -4.6055026    -0.6954300
C           2.0305486    -3.8062618     0.6277662
H           2.0700251    -4.6934115     1.2546213
C           2.8501113    -2.7162281     0.9214403
H           3.5135962    -2.7584034     1.7811806
C           2.8126306    -1.5494936     0.1393071
C           1.9374574    -1.5175701    -0.9597033
H           1.9048944    -0.6350749    -1.5904564
C           1.1222137    -2.6081366    -1.2568048
H           0.4570512    -2.5618862    -2.1151553
32
119_C18H14_4-6-27-25 (60,) energy =    -694.3565834
C           5.6861387     1.6042997     0.8560791
H           6.4150247     2.3916166     1.0289119
C           6.0845171     0.2692344     0.8047481
H           7.1302861    -0.0001465     0.9261143
C           5.1307055    -0.7218565     0.5838464
H           5.4395580    -1.7615205     0.5150797
C           3.7702045    -0.4154504     0.4186221
C           3.3633684     0.9401486     0.4765006
C           4.3408341     1.9263446     0.6936693
H           4.0248899     2.9637176     0.7615800
C          -0.7117338     2.3025095     0.1379671
H          -1.7359044     2.6573056     0.0589735
C          -0.3925887     1.2650174     1.0166543
H          -1.1676199     0.8125713     1.6298340
C           0.9196638     0.8060943     1.1174998
H           1.1576879     0.0031710     1.8079605
C           1.9430442     1.3771579     0.3433465
C           1.6084155     2.4227358    -0.5329937
H           2.3857691     2.8689711    -1.1478238
C           0.2943972     2.8796160    -0.6377228
H           0.0576673     3.6848202    -1.3285083
C           1.1238017    -3.7021521    -0.4536091
H           0.4635245    -4.5362785    -0.6757050
C           1.8491480    -3.6787383     0.7382259
H           1.7539849    -4.4932264     1.4517805
C           2.6970515    -2.6066711     1.0207734
H           3.2566260    -2.5885688     1.9526473
C           2.8342674    -1.5401317     0.1186352
C           2.0952134    -1.5738502    -1.0741417
H           2.1890838    -0.7552033    -1.7816083
C           1.2510119    -2.6461015    -1.3588038
H           0.6920529    -2.6574128    -2.2909072
32
119_C18H14_4-6-27-25 (75,) energy =    -694.3551686
C           5.7001029     1.6059898     0.8190390
H           6.4274095     2.3957333     0.9876632
C           6.1104129     0.2779051     0.7112746
H           7.1629028     0.0171716     0.7835381
C           5.1583177    -0.7173587     0.4989786
H           5.4722883    -1.7525914     0.3942094
C           3.7899691    -0.4207314     0.4041579
C           3.3720012     0.9280387     0.5038490
C           4.3470274     1.9187596     0.7137983
H           4.0245776     2.9515073     0.8141971
C          -0.7166897     2.2621482     0.2100772
H          -1.7439172     2.6099063     0.1396677
C          -0.3842164     1.2205012     1.0783697
H          -1.1521710     0.7576101     1.6926704
C           0.9322802     0.7706362     1.1681423
H           1.1792180    -0.0341480     1.8525938
C           1.9466427     1.3547233     0.3924081
C           1.5982768     2.4046805    -0.4736861
H           2.3684425     2.8607134    -1.0902823
C           0.2806416     2.8528041    -0.5668807
H           0.0338844     3.6614622    -1.2500822
C           1.1020577    -3.6728046    -0.4788195
H           0.4278676    -4.4950850    -0.7033277
C           1.6526863    -3.5446936     0.7971857
H           1.4070521    -4.2659523     1.5724715
C           2.5178688    -2.4873208     1.0835370
H           2.9459553    -2.3890793     2.0781371
C           2.8501090    -1.5450939     0.0989472
C           2.2850551    -1.6804821    -1.1773944
H           2.5278481    -0.9521865    -1.9461951
C           1.4214346    -2.7374281    -1.4650402
H           0.9967061    -2.8296472    -2.4613003
32
119_C18H14_4-6-27-25 (90,) energy =    -694.3538573
C           5.6443430     1.5215604     1.1529307
H           6.3611354     2.2618215     1.4984086
C           6.0647930     0.2380422     0.8065930
H           7.1120800    -0.0408005     0.8866953
C           5.1277556    -0.6926780     0.3617656
H           5.4458340    -1.6995121     0.1044646
C           3.7684892    -0.3674652     0.2375807
C           3.3368947     0.9295032     0.6028181
C           4.2956179     1.8539043     1.0536744
H           3.9674362     2.8560206     1.3159044
C          -0.7637484     2.2601158     0.5357923
H          -1.7941656     2.6053123     0.5230502
C           0.0071753     2.3875582     1.6920565
H          -0.4209606     2.8296599     2.5880524
C           1.3292437     1.9435432     1.7043573
H           1.9209801     2.0340527     2.6114819
C           1.9079787     1.3581831     0.5655327
C           1.1205566     1.2391917    -0.5906025
H           1.5490370     0.8056640    -1.4877693
C          -0.2003798     1.6857334    -0.6049399
H          -0.7892931     1.5882231    -1.5132801
C           1.1996411    -3.6210563    -0.9473056
H           0.5673567    -4.4540205    -1.2430646
C           1.3936409    -3.3324961     0.4045596
H           0.9158129    -3.9428811     1.1665187
C           2.2074392    -2.2644880     0.7845766
H           2.3603301    -2.0458929     1.8379691
C           2.8275644    -1.4574943    -0.1797668
C           2.6412039    -1.7695327    -1.5344183
H           3.1408139    -1.1702618    -2.2916683
C           1.8285401    -2.8379401    -1.9165479
H           1.6915069    -3.0610336    -2.9715584
32
119_C18H14_4-6-27-25 (105,) energy =    -694.3554764
C           5.6478199     1.5333491     1.1229748
H           6.3652750     2.2707404     1.4731297