32
119_C18H14_8-7-16-17 (-165,) energy =    -694.3494956
C           5.2117228     1.3756498     2.2062083
H           5.8732442     2.1041885     2.6672869
C           5.5316757     0.0203180     2.2143878
H           6.4470383    -0.3356173     2.6790455
C           4.6660371    -0.8736847     1.5930159
H           4.9255562    -1.9277420     1.5457264
C           3.4772871    -0.4593625     0.9678113
C           3.1041204     0.9136989     1.0203684
C           4.0277961     1.8000145     1.6132593
H           3.7789128     2.8526067     1.6831353
C          -0.4079490     2.6219398    -0.8807782
H          -1.2776585     3.0544343    -1.3680129
C           0.7029625     3.4102784    -0.5809648
H           0.7127978     4.4648657    -0.8442420
C           1.8178970     2.8514722     0.0392362
H           2.6782048     3.4898324     0.2045029
C           1.8629531     1.4897030     0.4062421
C           0.7407045     0.7098620     0.0655381
H           0.7080338    -0.3365451     0.3343291
C          -0.3781977     1.2677727    -0.5517888
H          -1.2306301     0.6317964    -0.7760143
C           1.5582598    -3.6372621    -1.2237403
H           1.0932079    -4.4479135    -1.7782958
C           2.1117719    -2.5483519    -1.9021974
H           2.0838824    -2.5119098    -2.9881725
C           2.7067258    -1.5069089    -1.1922719
H           3.1369004    -0.6627658    -1.7237180
C           2.7581093    -1.5327202     0.2107519
C           2.2122376    -2.6376780     0.8804555
H           2.2512742    -2.6727105     1.9661810
C           1.6112856    -3.6790812     0.1697326
H           1.1867386    -4.5231193     0.7072080
32
119_C18H14_8-7-16-17 (-150,) energy =    -694.3541305
C           5.1552536     1.3763943     2.3082995
H           5.7898733     2.1019029     2.8101236
C           5.4874252     0.0231337     2.3080731
H           6.3876607    -0.3284653     2.8046894
C           4.6596406    -0.8763503     1.6423444
H           4.9359304    -1.9260954     1.5941250
C           3.4921728    -0.4662516     0.9763585
C           3.1174147     0.9035714     1.0246061
C           3.9925605     1.7980151     1.6709354
H           3.7176751     2.8465818     1.7280021
C          -0.3829980     2.5657050    -0.8968163
H          -1.2580034     2.9879444    -1.3836554
C           0.8005844     3.2992526    -0.8110375
H           0.8587942     4.2958158    -1.2411623
C           1.9217461     2.7535645    -0.1880410
H           2.8433928     3.3270537    -0.1698926
C           1.8924121     1.4655760     0.3802651
C           0.6967682     0.7336384     0.2621499
H           0.6294957    -0.2583815     0.6924192
C          -0.4266414     1.2800238    -0.3559607
H          -1.3404305     0.6944142    -0.4140761
C           1.5539222    -3.5718466    -1.2988506
H           1.0815224    -4.3631780    -1.8747257
C           2.0101873    -2.4150700    -1.9357612
H           1.8992197    -2.3058793    -3.0114784
C           2.6137379    -1.3979116    -1.1986262
H           2.9692903    -0.5026565    -1.7001523
C           2.7747977    -1.5169557     0.1914071
C           2.3220263    -2.6882934     0.8179974
H           2.4396856    -2.7942512     1.8934458
C           1.7122188    -3.7052256     0.0808518
H           1.3614125    -4.6010273     0.5868329
32
119_C18H14_8-7-16-17 (-135,) energy =    -694.3565666
C           5.0890195     1.3756346     2.4029113
H           5.6888833     2.0970657     2.9511979
C           5.4405585     0.0268471     2.3884610
H           6.3234823    -0.3206768     2.9180917
C           4.6572513    -0.8752554     1.6729582
H           4.9499661    -1.9205327     1.6245281
C           3.5134208    -0.4687705     0.9653953
C           3.1348299     0.8977540     1.0076318
C           3.9512918     1.7951164     1.7187169
H           3.6554097     2.8392805     1.7662493
C          -0.3766389     2.5413409    -0.8835417
H          -1.2604028     2.9633033    -1.3546096
C           0.8533635     3.1922811    -0.9840532
H           0.9354357     4.1225284    -1.5403362
C           1.9858810     2.6484288    -0.3779886
H           2.9431027     3.1526804    -0.4792856
C           1.9161850     1.4431687     0.3417972
C           0.6715564     0.7960681     0.4266019
H           0.5889977    -0.1317499     0.9828646
C          -0.4615419     1.3414762    -0.1741368
H          -1.4149898     0.8272914    -0.0852301
C           1.5611687    -3.5295213    -1.3571832
H           1.0825158    -4.3087477    -1.9443110
C           1.9599779    -2.3362986    -1.9642075
H           1.7980813    -2.1859959    -3.0284272
C           2.5712352    -1.3343959    -1.2125876
H           2.8826285    -0.4118184    -1.6929775
C           2.7992596    -1.5054926     0.1626513
C           2.4002107    -2.7124781     0.7589828
H           2.5640821    -2.8582315     1.8236334
C           1.7833337    -3.7140335     0.0078413
H           1.4753332    -4.6374853     0.4915081
32
119_C18H14_8-7-16-17 (-120,) energy =    -694.3567522
C           5.0240653     1.3650180     2.4905630
H           5.5877708     2.0800874     3.0837153
C           5.4018518     0.0235885     2.4507560
H           6.2712505    -0.3216114     3.0038969
C           4.6623669    -0.8755823     1.6861746
H           4.9731827    -1.9151987     1.6298466
C           3.5368030    -0.4706445     0.9486585
C           3.1478758     0.8908420     0.9976344
C           3.9065090     1.7838102     1.7720130
H           3.5900394     2.8220590     1.8241585
C          -0.3758050     2.5277739    -0.8649980
H          -1.2653353     2.9522976    -1.3228026
C           0.8818965     3.0651852    -1.1412662
H           0.9778682     3.9103557    -1.8180701
C           2.0220764     2.5191098    -0.5499672
H           3.0002709     2.9387913    -0.7707950
C           1.9278610     1.4204276     0.3188602
C           0.6555692     0.8940088     0.5934178
H           0.5632558     0.0520498     1.2730140
C          -0.4840191     1.4415565     0.0063860
H          -1.4602268     1.0214632     0.2342031
C           1.5841748    -3.4999614    -1.4147963
H           1.1029986    -4.2707878    -2.0108914
C           1.9446635    -2.2829684    -1.9974417
H           1.7505560    -2.1050897    -3.0519757
C           2.5590706    -1.2915651    -1.2343577
H           2.8408344    -0.3515583    -1.6982815
C           2.8292744    -1.4967432     0.1286294
C           2.4655511    -2.7271773     0.7003570
H           2.6574088    -2.8991578     1.7563143
C           1.8464640    -3.7182953    -0.0618160
H           1.5667093    -4.6597757     0.4039412
32
119_C18H14_8-7-16-17 (-105,) energy =    -694.3554764
C           4.9618420     1.3344021     2.5641170
H           5.4933119     2.0398036     3.1972712
C           5.3740597     0.0048751     2.4832549
H           6.2390764    -0.3391273     3.0440533
C           4.6732506    -0.8846990     1.6725816
H           5.0054744    -1.9162193     1.5939742
C           3.5542672    -0.4795646     0.9244324
C           3.1419826     0.8722940     1.0025172
C           3.8522024     1.7532896     1.8325811
H           3.5121482     2.7827891     1.9071519
C          -0.3853479     2.5117049    -0.8521466
H          -1.2750691     2.9400491    -1.3060108
C           0.8820248     2.8922834    -1.2952980
H           0.9843669     3.6202127    -2.0960827
C           2.0233101     2.3426341    -0.7088279
H           3.0096562     2.6456677    -1.0514671
C           1.9170893     1.3932299     0.3186313
C           0.6377846     1.0311192     0.7660309
H           0.5416050     0.3100383     1.5729907
C          -0.5032192     1.5810682     0.1822632
H          -1.4862004     1.2865490     0.5406461
C           1.6229603    -3.4868873    -1.4852149
H           1.1452939    -4.2522532    -2.0911106
C           1.9648069    -2.2556916    -2.0481328
H           1.7598903    -2.0608020    -3.0976140
C           2.5748517    -1.2711976    -1.2722239
H           2.8430608    -0.3215383    -1.7234322
C           2.8590062    -1.4973540     0.0844184
C           2.5127718    -2.7421441     0.6362873
H           2.7134410    -2.9301496     1.6877988
C           1.8990257    -3.7263534    -0.1384454
H           1.6332333    -4.6789099     0.3127318
32
119_C18H14_8-7-16-17 (-90,) energy =    -694.3538573
C           4.9035565     1.3084934     2.6421772
H           5.4066942     1.9998958     3.3128349
C           5.3569954    -0.0029555     2.5055944
H           6.2252839    -0.3466399     3.0615577
C           4.6903441    -0.8757018     1.6493179
H           5.0469946    -1.8957962     1.5357643
C           3.5688845    -0.4694475     0.9048259
C           3.1201355     0.8661320     1.0338484
C           3.7907651     1.7275647     1.9153524
H           3.4223018     2.7437612     2.0279723
C          -0.4062775     2.5143725    -0.8204841
H          -1.2939490     2.9456652    -1.2755760
C           0.8452983     2.6998242    -1.4097961
H           0.9375658     3.2801265    -2.3243118
C           1.9843111     2.1462662    -0.8231348
H           2.9593311     2.3047785    -1.2774276
C           1.8905425     1.3874840     0.3527387
C           0.6305938     1.2262429     0.9463120
H           0.5472061     0.6578555     1.8686966
C          -0.5096463     1.7779061     0.3608023
H          -1.4788973     1.6366504     0.8320338
C           1.6803218    -3.4660789    -1.5531318
H           1.2116299    -4.2291585    -2.1688575
C           2.0422259    -2.2379056    -2.1092617
H           1.8626096    -2.0430514    -3.1633925
C           2.6410178    -1.2560254    -1.3206821
H           2.9279698    -0.3107877    -1.7685543
C           2.8919258    -1.4815099     0.0420477
C           2.5274569    -2.7244656     0.5866553
H           2.7046182    -2.9121428     1.6424017
C           1.9255791    -3.7060021    -0.2004098
H           1.6450890    -4.6568273     0.2454798
32
119_C18H14_8-7-16-17 (-75,) energy =    -694.3551682
C           5.8250871     1.4181036     0.5925866
H           6.6363351     2.1411341     0.5872199
C           6.0728697     0.0770810     0.8825561
H           7.0790906    -0.2595857     1.1176878
C           5.0199786    -0.8344821     0.8743355
H           5.2095160    -1.8764781     1.1170167
C           3.7017294    -0.4414445     0.5838790
C           3.4512883     0.9224333     0.2992476
C           4.5253373     1.8256470     0.2983611
H           4.3274635     2.8655169     0.0518532
C          -0.4141270     2.4299994    -0.8699129
H          -1.3864468     2.8138657    -1.1670926
C           0.3204895     1.6266457    -1.7443016
H          -0.0780649     1.3833267    -2.7258260
C           1.5677743     1.1318428    -1.3633091
H           2.1343620     0.5033339    -2.0447545
C           2.1052195     1.4379910    -0.1047009
C           1.3559258     2.2411058     0.7677345
H           1.7600669     2.4802232     1.7483682
C           0.1069970     2.7357543     0.3881683
H          -0.4591964     3.3573447     1.0771339
C           0.7009267    -3.5362261     0.6296802
H          -0.0472147    -4.3243176     0.6460937
C           1.8781589    -3.6988782    -0.1017170
H           2.0508788    -4.6137657    -0.6627317
C           2.8366320    -2.6857252    -0.1200849
H           3.7456597    -2.8134836    -0.7020023
C           2.6379539    -1.4875320     0.5863293
C           1.4485501    -1.3387860     1.3179385
H           1.2775630    -0.4273304     1.8809953
C           0.4917498    -2.3525113     1.3399521
H          -0.4187837    -2.2177144     1.9180184
32
119_C18H14_8-7-16-17 (-60,) energy =    -694.3565835
C           5.7948164     1.4373634     0.6887930
H           6.5942991     2.1720655     0.7329896
C           6.0587092     0.0883709     0.9219591
H           7.0653515    -0.2436773     1.1616007
C           5.0193049    -0.8363879     0.8559184
H           5.2181656    -1.8838461     1.0653316
C           3.7012862    -0.4501432     0.5577584
C           3.4357197     0.9199904     0.3150926
C           4.4956711     1.8384678     0.3852322
H           4.2890320     2.8844603     0.1748834
C          -0.4107751     2.4698975    -0.8542539
H          -1.3769326     2.8682198    -1.1524834
C           0.2106127     1.4841812    -1.6243306
H          -0.2692713     1.1149991    -2.5269900
C           1.4485565     0.9696576    -1.2419966
H           1.9262600     0.2026272    -1.8444589
C           2.0926153     1.4361706    -0.0854516
C           1.4576439     2.4260337     0.6807887
H           1.9413221     2.7893840     1.5840578
C           0.2164568     2.9389193     0.3006698
H          -0.2607798     3.7025004     0.9095968
C           0.7282423    -3.5709049     0.5604049
H          -0.0132726    -4.3653477     0.5687201
C           1.9042234    -3.7140983    -0.1768709
H           2.0825514    -4.6200797    -0.7504303
C           2.8548170    -2.6929711    -0.1844201
H           3.7638156    -2.8060142    -0.7695282
C           2.6479041    -1.5065820     0.5386483
C           1.4594536    -1.3768378     1.2758977
H           1.2834586    -0.4723024     1.8493810
C           0.5113168    -2.3984446     1.2874979
H          -0.3985571    -2.2792326     1.8699822
32
119_C18H14_8-7-16-17 (-45,) energy =    -694.3567637
C           5.7551672     1.4479599     0.7858569
H           6.5410507     2.1925875     0.8798913
C           6.0365321     0.0944930     0.9653381
H           7.0431653    -0.2333117     1.2104853
C           5.0105607    -0.8392511     0.8427785
H           5.2171497    -1.8911513     1.0201544
C           3.6930128    -0.4587439     0.5371223
C           3.4117669     0.9150045     0.3250870
C           4.4576712     1.8429556     0.4703050
H           4.2474418     2.8935450     0.2908521
C          -0.4031810     2.5293120    -0.8702896
H          -1.3564374     2.9488806    -1.1805845
C           0.1110732     1.3999620    -1.5110689
H          -0.4375894     0.9407719    -2.3292692
C           1.3319208     0.8586237    -1.1128226
H           1.7261381    -0.0125133    -1.6261132
C           2.0676316     1.4336488    -0.0626301
C           1.5427857     2.5760345     0.5649975
H           2.0914935     3.0315666     1.3851160
C           0.3182536     3.1153501     0.1703408
H          -0.0718102     3.9932099     0.6790133
C           0.7661382    -3.6223063     0.5138767
H           0.0364469    -4.4276403     0.5175644
C           1.9209789    -3.7235217    -0.2625535
H           2.0945750    -4.6075440    -0.8707686
C           2.8572697    -2.6886795    -0.2638664
H           3.7510749    -2.7691418    -0.8772009
C           2.6545941    -1.5305075     0.5039906
C           1.4883731    -1.4432685     1.2818361
H           1.3190433    -0.5602003     1.8903295
C           0.5553050    -2.4785427     1.2874859
H          -0.3376010    -2.3931807     1.9013196
32
119_C18H14_8-7-16-17 (-30,) energy =    -694.3548054
C           5.7215355     1.4438416     0.8895777
H           6.4952936     2.1924736     1.0371365
C           6.0153521     0.0870687     1.0109466
H           7.0201337    -0.2431451     1.2600949
C           4.9980373    -0.8458699     0.8297511
H           5.2068109    -1.9027039     0.9716272
C           3.6825519    -0.4628873     0.5189824
C           3.3921255     0.9156697     0.3361039
C           4.4280966     1.8410472     0.5633276
H           4.2259621     2.8974848     0.4177875
C          -0.3990356     2.5765499    -0.9029080
H          -1.3401105     3.0087930    -1.2322525
C           0.0224278     1.3410916    -1.3972102
H          -0.5838793     0.8097838    -2.1262440
C           1.2280658     0.7848257    -0.9742330
H           1.5487361    -0.1615756    -1.3941410
C           2.0431247     1.4400818    -0.0322378
C           1.6145830     2.6976892     0.4314251
H           2.2139885     3.2302320     1.1639395
C           0.4059147     3.2529767     0.0138815
H           0.0950787     4.2173084     0.4075010
C           0.8076918    -3.6741185     0.4826415
H           0.0921019    -4.4919923     0.4850834
C           1.9253377    -3.7203524    -0.3512359
H           2.0839839    -4.5741686    -1.0049695
C           2.8443599    -2.6695952    -0.3505982
H           3.7104441    -2.7072359    -1.0064228
C           2.6587751    -1.5500840     0.4758850
C           1.5313929    -1.5186282     1.3129358
H           1.3786685    -0.6655976     1.9673577
C           0.6163948    -2.5698501     1.3166779
H          -0.2467240    -2.5284461     1.9759860
32
119_C18H14_8-7-16-17 (-15,) energy =    -694.3505223
C           5.6909281     1.4357581     0.9980411
H           6.4537064     2.1819457     1.2037451
C           5.9933331     0.0773273     1.0541468
H           6.9949144    -0.2615734     1.3041832
C           4.9805099    -0.8455897     0.8127527
H           5.1866321    -1.9077018     0.9128114
C           3.6680057    -0.4527693     0.5004934
C           3.3733584     0.9320529     0.3518600
C           4.4030035     1.8423664     0.6645182
H           4.2161972     2.9055475     0.5663550
C          -0.4040284     2.6183584    -0.9461115
H          -1.3365981     3.0532675    -1.2953885
C          -0.0691697     1.3037190    -1.2689204
H          -0.7331291     0.7072381    -1.8892842
C           1.1268040     0.7457716    -0.8204826
H           1.3739408    -0.2605481    -1.1312098
C           2.0219761     1.4700551    -0.0072776
C           1.6823735     2.8112471     0.2633028
H           2.3311171     3.4200080     0.8839451
C           0.4852066     3.3702139    -0.1786386
H           0.2518545     4.4005017     0.0773378
C           0.8562498    -3.7198492     0.4516160
H           0.1584114    -4.5528966     0.4531050
C           1.9191575    -3.6950478    -0.4517163
H           2.0529848    -4.5087217    -1.1599117
C           2.8164684    -2.6251728    -0.4497793
H           3.6412222    -2.6075907    -1.1576505
C           2.6603000    -1.5567916     0.4466085
C           1.5899590    -1.5975321     1.3550866
H           1.4634625    -0.7840679     2.0636124
C           0.6973954    -2.6678082     1.3572408
H          -0.1221610    -2.6828826     2.0710378
32
119_C18H14_8-7-16-17 (0,) energy =    -694.3454010
C           5.6478183     1.4214585     1.1352073
H           6.4067766     2.1629790     1.3701037
C           5.9362717     0.0617347     1.2063525
H           6.9240872    -0.2891395     1.4917108
C           4.9193630    -0.8442787     0.9288051
H           5.1090783    -1.9099783     1.0228132
C           3.6231673    -0.4388748     0.5657325
C           3.3363756     0.9493088     0.4107532
C           4.3780103     1.8391328     0.7546812
H           4.2169447     2.9066550     0.6842774
C          -0.4065169     2.6802882    -1.0089618
H          -1.3305602     3.1194030    -1.3750400
C          -0.2286256     1.2993101    -0.9959082
H          -1.0128744     0.6428581    -1.3641816
C           0.9573749     0.7356251    -0.5258539
H           1.0518318    -0.3372628    -0.5727699
C           2.0142292     1.5236476    -0.0251817
C           1.8189492     2.9215574    -0.0890968
H           2.5840847     3.6045400     0.2576454
C           0.6353475     3.4877800    -0.5544739
H           0.5347064     4.5700747    -0.5652948
C           0.9331495    -3.8018089     0.3465587
H           0.2693172    -4.6611430     0.3040461
C           1.8661841    -3.5841821    -0.6679400
H           1.9329550    -4.2743491    -1.5050159
C           2.7206159    -2.4809288    -0.6109769
H           3.4463656    -2.3135211    -1.4024794
C           2.6463634    -1.5711953     0.4537422
C           1.7126292    -1.8078692     1.4752892
H           1.6551776    -1.1169707     2.3119610
C           0.8618959    -2.9111736     1.4205984
H           0.1450811    -3.0784444     2.2203707
32
119_C18H14_8-7-16-17 (15,) energy =    -694.3505223
C           5.6064501     1.4574884     1.2739054
H           6.3967997     2.1925280     1.4004255
C           5.7783202     0.1476041     1.7150090
H           6.7034724    -0.1636246     2.1922586
C           4.7528546    -0.7696267     1.5077119
H           4.8959591    -1.8085942     1.7917285
C           3.5458304    -0.4148900     0.8818178
C           3.3274632     0.9419042     0.5102859
C           4.4077072     1.8320697     0.6756080
H           4.2811818     2.8730931     0.4014342
C          -0.3362221     2.5904603    -1.1188048
H          -1.2566083     3.0221432    -1.5027014
C          -0.3621258     1.4131334    -0.3718752
H          -1.3087582     0.9259737    -0.1527110
C           0.8183800     0.8590474     0.1202081
H           0.7534697    -0.0282495     0.7356794
C           2.0743501     1.4439860    -0.1396077
C           2.0675840     2.6587614    -0.8548849
H           3.0031777     3.1567608    -1.0857866
C           0.8900336     3.2122778    -1.3528781
H           0.9352474     4.1364788    -1.9232153
C           1.0108772    -3.7857071    -0.0088782
H           0.3879709    -4.6469127    -0.2352835
C           1.5058422    -2.9850277    -1.0413976
H           1.2741084    -3.2253719    -2.0757784
C           2.3027869    -1.8787929    -0.7526843
H           2.6874563    -1.2617259    -1.5595364
C           2.6211188    -1.5499184     0.5750938
C           2.1283065    -2.3688270     1.6026121
H           2.3681571    -2.1272139     2.6349421
C           1.3251766    -3.4740950     1.3142041
H           0.9465731    -4.0908692     2.1252356
32
119_C18H14_8-7-16-17 (30,) energy =    -694.3548055
C           5.5735965     1.4920033     1.3718221
H           6.3385609     2.2437418     1.5468756
C           5.7775824     0.1691832     1.7597008
H           6.7056554    -0.1322957     2.2377115
C           4.7833582    -0.7722605     1.5080141
H           4.9541690    -1.8149123     1.7616181
C           3.5736731    -0.4289964     0.8814655
C           3.3376216     0.9291789     0.5382346
C           4.3734866     1.8542692     0.7670926
H           4.2057384     2.8978463     0.5203030
C          -0.3098433     2.5373595    -1.1280213
H          -1.2266204     2.9609203    -1.5293187
C          -0.3591597     1.4816526    -0.2162280
H          -1.3178957     1.0854653     0.1081966
C           0.8158063     0.9363828     0.2976197
H           0.7518263     0.1368743     1.0266754
C           2.0776592     1.4202517    -0.0956652
C           2.1048223     2.5038807    -0.9929951
H           3.0601695     2.8999863    -1.3244746
C           0.9305669     3.0467359    -1.5126031
H           0.9882071     3.8703610    -2.2195731
C           1.0021498    -3.7553712    -0.0672836
H           0.3674531    -4.6040211    -0.3079998
C           1.4270812    -2.8866009    -1.0754023
H           1.1287710    -3.0608925    -2.1059416
C           2.2386876    -1.7960844    -0.7682229
H           2.5689846    -1.1276575    -1.5577528
C           2.6443211    -1.5519913     0.5540956
C           2.2181016    -2.4377093     1.5564181
H           2.5211142    -2.2603393     2.5851776
C           1.4007090    -3.5270954     1.2501605
H           1.0755291    -4.1959858     2.0428663
32
119_C18H14_8-7-16-17 (45,) energy =    -694.3567637
C           5.5451879     1.5104087     1.4664229
H           6.2888262     2.2704971     1.6904630
C           5.7733677     0.1761559     1.7995307
H           6.7013092    -0.1231537     2.2793244
C           4.8055898    -0.7789047     1.4982415
H           4.9956339    -1.8253458     1.7206795
C           3.5963052    -0.4377319     0.8694537
C           3.3505453     0.9235794     0.5569807
C           4.3472634     1.8693673     0.8538667
H           4.1529797     2.9147467     0.6312234
C          -0.2951299     2.4793300    -1.1394138
H          -1.2116591     2.8864620    -1.5580282
C          -0.3478367     1.5658562    -0.0843033
H          -1.3073203     1.2645910     0.3279720
C           0.8262261     1.0404269     0.4519972
H           0.7722297     0.3399529     1.2791427
C           2.0819815     1.4154664    -0.0552335
C           2.1194156     2.3437561    -1.1094142
H           3.0797531     2.6410325    -1.5224088
C           0.9443526     2.8661220    -1.6501944
H           0.9993458     3.5744805    -2.4728330
C           0.9901002    -3.7214342    -0.1300508
H           0.3446616    -4.5583777    -0.3829445
C           1.3661122    -2.8016132    -1.1117064
H           1.0188534    -2.9239116    -2.1343563
C           2.1913123    -1.7258190    -0.7889829
H           2.4830241    -1.0186234    -1.5593959
C           2.6608099    -1.5480055     0.5227508
C           2.2805664    -2.4836900     1.4984549
H           2.6292407    -2.3566319     2.5201324
C           1.4502570    -3.5582948     1.1770142
H           1.1620539    -4.2661511     1.9499566
32
119_C18H14_8-7-16-17 (60,) energy =    -694.3565834
C           5.5211416     1.5177934     1.5652361
H           6.2459322     2.2803001     1.8375900
C           5.7668034     0.1743995     1.8458395
H           6.6912150    -0.1280054     2.3306325
C           4.8217692    -0.7854273     1.4915144
H           5.0243964    -1.8354344     1.6838557
C           3.6169274    -0.4400184     0.8556771
C           3.3659388     0.9259024     0.5765906
C           4.3294160     1.8802108     0.9413243
H           4.1198540     2.9284209     0.7454033
C          -0.2943107     2.4120948    -1.1439131
H          -1.2155079     2.7952576    -1.5747816
C          -0.3266032     1.6759172     0.0425705
H          -1.2739541     1.4870967     0.5408204
C           0.8536724     1.1809947     0.5952278
H           0.8216670     0.6084748     1.5175522
C           2.0904819     1.4187393    -0.0243474
C           2.1098985     2.1587758    -1.2168575
H           3.0601865     2.3420600    -1.7120568
C           0.9281992     2.6513621    -1.7727673
H           0.9638863     3.2191094    -2.6990415
C           0.9900779    -3.6900985    -0.1991178
H           0.3381315    -4.5180086    -0.4647723
C           1.3361076    -2.7327025    -1.1551753
H           0.9589278    -2.8161516    -2.1711179
C           2.1695776    -1.6681635    -0.8163221
H           2.4370873    -0.9329133    -1.5685963
C           2.6781661    -1.5393060     0.4865506
C           2.3253958    -2.5118486     1.4367976
H           2.7007709    -2.4218939     2.4528779
C           1.4876067    -3.5751668     1.0994591
H           1.2218349    -4.3115532     1.8535690
32
119_C18H14_8-7-16-17 (75,) energy =    -694.3551685
C           5.4856512     1.5235599     1.6604216
H           6.1900292     2.2867836     1.9802088
C           5.7520865     0.1738767     1.8867161
H           6.6730232    -0.1320069     2.3760224
C           4.8310739    -0.7872469     1.4773713
H           5.0459072    -1.8401632     1.6379518
C           3.6312478    -0.4370185     0.8336686
C           3.3676442     0.9333914     0.5964222
C           4.2995981     1.8900896     1.0272017
H           4.0756154     2.9411806     0.8650537
C          -0.3105375     2.3767269    -1.1268351
H          -1.2371420     2.7450261    -1.5590796
C          -0.2996139     1.8506670     0.1665003
H          -1.2185464     1.8086500     0.7454994
C           0.8887726     1.3759851     0.7215901
H           0.8921534     0.9632391     1.7265950
C           2.0879043     1.4261247    -0.0038529
C           2.0639709     1.9512563    -1.3043159
H           2.9865805     1.9897319    -1.8783000
C           0.8751103     2.4253456    -1.8614757
H           0.8757937     2.8296869    -2.8704988
C           1.0083022    -3.6731298    -0.2755788
H           0.3559800    -4.4969762    -0.5527326
C           1.3520044    -2.7008651    -1.2168514
H           0.9729419    -2.7684238    -2.2332919
C           2.1860882    -1.6412189    -0.8633026
H           2.4524674    -0.8967716    -1.6061969
C           2.6972502    -1.5318138     0.4400644
C           2.3462279    -2.5197330     1.3754987
H           2.7222230    -2.4447081     2.3924960
C           1.5086942    -3.5781148     1.0236051
H           1.2447327    -4.3260507     1.7669166
32
119_C18H14_8-7-16-17 (90,) energy =    -694.3538574
C           5.5202738     1.5009812     1.5200102
H           6.2268436     2.2691010     1.8228728
C           5.8922080     0.1571879     1.5168556
H           6.8910017    -0.1389552     1.8264409
C           4.9744649    -0.8096948     1.1140768
H           5.2600545    -1.8580914     1.1181907
C           3.6697175    -0.4705180     0.7147543
C           3.2900571     0.8922990     0.7331142
C           4.2324049     1.8560364     1.1230300
H           3.9400140     2.9026455     1.1084865
C          -0.4840618     2.4598027    -0.6419034
H          -1.4273824     2.8733998    -0.9885498
C          -0.2833604     2.2113273     0.7168066
H          -1.0688281     2.4347283     1.4342529
C           0.9293270     1.6814141     1.1601657
H           1.0872682     1.5022675     2.2208967
C           1.9553522     1.3782407     0.2532571
C           1.7491448     1.6518477    -1.1063270
H           2.5437059     1.4403690    -1.8167963
C           0.5369868     2.1805706    -1.5518097
H           0.3931660     2.3798987    -2.6106092
C           1.1334888    -3.7061534    -0.5835347
H           0.5029015    -4.5290835    -0.9094476
C           2.4036581    -3.5320005    -1.1347962
H           2.7673250    -4.2169167    -1.8965089
C           3.2102970    -2.4749425    -0.7139925
H           4.1936858    -2.3370013    -1.1557491
C           2.7645272    -1.5667114     0.2610664
C           1.4855730    -1.7565299     0.8079353
H           1.1251362    -1.0785292     1.5739869
C           0.6794586    -2.8149384     0.3902513
H          -0.3051883    -2.9455094     0.8316592
32
119_C18H14_8-7-16-17 (105,) energy =    -694.3554764
C           5.4830069     1.5214475     1.6170423
H           6.1692828     2.2894690     1.9636050