22
102_C9H9N3S_18-0-11-9 (-165,) energy =    -910.8109763
N           1.9412072    -1.2922372    -0.2911980
C           1.2317143    -2.2180847     0.5951217
H           1.7262899    -3.1969646     0.6296132
H           0.2247466    -2.3501349     0.2076299
H           1.1894394    -1.7989048     1.6045093
C           5.6354547     0.2538861     0.7929716
H           6.5964673     0.6985676     1.0286054
C           5.0660339    -0.7370187     1.5982657
H           5.5847201    -1.0936895     2.4841711
C           3.8350821    -1.2827392     1.2617028
H           3.4018850    -2.0647110     1.8716116
C           3.1840200    -0.7997725     0.1039890
N           3.7354724     0.1393481    -0.6737584
C           4.9252931     0.6452183    -0.3367645
H           5.3205571     1.4027265    -1.0112283
C          -0.0625047    -1.3519902    -3.2053775
H          -0.9478496    -1.8081391    -3.6347699
N           0.3067401    -1.7148099    -1.9309304
C           1.3922382    -1.0856253    -1.5582071
S           2.0444514     0.0273689    -2.7687986
C           0.7342121    -0.4420358    -3.8246342
H           0.6416398    -0.0262286    -4.8187496
22
102_C9H9N3S_18-0-11-9 (-150,) energy =    -910.8096678
N           1.8573608    -1.1981419    -0.2293861
C           1.1402911    -2.1192874     0.6546191
H           1.5013511    -3.1513726     0.5557348
H           0.0865755    -2.1021904     0.3837451
H           1.2623018    -1.7864341     1.6879129
C           5.6216823     0.2230039     0.7863754
H           6.5968565     0.6428011     1.0095556
C           5.1069718    -0.8611826     1.5023922
H           5.6859110    -1.3225716     2.2980104
C           3.8556636    -1.3706675     1.1810200
H           3.4639643    -2.2317792     1.7077154
C           3.1281150    -0.7489506     0.1438582
N           3.6292605     0.2741302    -0.5581044
C           4.8423145     0.7387343    -0.2443096
H           5.1990237     1.5679747    -0.8525613
C           0.0082084    -1.5020184    -3.2261153
H          -0.8213240    -2.0324541    -3.6808614
N           0.3367605    -1.7953412    -1.9216703
C           1.3607718    -1.0833341    -1.5273124
S           1.9935507     0.0341713    -2.7440137
C           0.7738245    -0.5637425    -3.8425863
H           0.7067038    -0.1943199    -4.8567998
22
102_C9H9N3S_18-0-11-9 (-135,) energy =    -910.8073191
N           1.7904188    -1.0783261    -0.1716944
C           1.0769468    -2.0053929     0.7092154
H           1.3637930    -3.0513277     0.5381595
H           0.0094062    -1.9155566     0.5116756
H           1.2841089    -1.7299926     1.7454464
C           5.6261743     0.2005939     0.7743384
H           6.6173415     0.5888450     0.9844379
C           5.1528494    -0.9669943     1.3773687
H           5.7809395    -1.5290039     2.0634529
C           3.8783700    -1.4301719     1.0727815
H           3.5104736    -2.3536808     1.5034586
C           3.0892049    -0.6748075     0.1835890
N           3.5498616     0.4269948    -0.4191414
C           4.7865898     0.8441164    -0.1307214
H           5.1136648     1.7416160    -0.6525180
C           0.0962628    -1.5907680    -3.2308519
H          -0.6863550    -2.1751751    -3.7022195
N           0.3744493    -1.8194016    -1.9008056
C           1.3476981    -1.0485616    -1.4927288
S           1.9838819     0.0549679    -2.7205369
C           0.8489467    -0.6437815    -3.8500816
H           0.8170166    -0.3203914    -4.8814871
22
102_C9H9N3S_18-0-11-9 (-120,) energy =    -910.8040772
N           1.7110334    -0.9926639    -0.1262987
C           0.9941830    -1.9062434     0.7675994
H           1.2259241    -2.9612871     0.5703056
H          -0.0770596    -1.7692220     0.6168749
H           1.2547322    -1.6549493     1.7978954
C           5.6059087     0.1534022     0.7649889
H           6.6101895     0.5114012     0.9673543
C           5.1657040    -1.0887823     1.2252822
H           5.8316948    -1.7402489     1.7847967
C           3.8712601    -1.5054610     0.9326814
H           3.5170369    -2.4798832     1.2492575
C           3.0360968    -0.6316973     0.2153459
N           3.4617155     0.5444573    -0.2563148
C           4.7177308     0.9175622     0.0113546
H           5.0210611     1.8795375    -0.3976551
C           0.1487963    -1.6912396    -3.2200599
H          -0.6065073    -2.3070657    -3.6959184
N           0.3712511    -1.8512762    -1.8684211
C           1.3172795    -1.0492598    -1.4601263
S           1.9934440     0.0024603    -2.7133690
C           0.9186548    -0.7688905    -3.8549255
H           0.9282305    -0.4973396    -4.9014625
22
102_C9H9N3S_18-0-11-9 (-105,) energy =    -910.8006571
N           1.6751087    -0.9195043    -0.1082669
C           0.9456832    -1.7875578     0.8216822
H           1.1312274    -2.8549852     0.6416015
H          -0.1241611    -1.6127364     0.6965262
H           1.2425894    -1.5250917     1.8392181
C           5.5993314     0.1533779     0.7671194
H           6.6081916     0.4950861     0.9759586
C           5.2055280    -1.1592574     1.0292547
H           5.9100751    -1.8801144     1.4353333
C           3.9012924    -1.5457169     0.7340632
H           3.5694068    -2.5655885     0.8972188
C           3.0195668    -0.5818052     0.2227123
N           3.3951562     0.6690791    -0.0565085
C           4.6599978     1.0177626     0.2071014
H           4.9285731     2.0432957    -0.0396521
C           0.1821318    -1.7504164    -3.2024338
H          -0.5886680    -2.3544863    -3.6684715
N           0.3462469    -1.8346847    -1.8349765
C           1.3164006    -1.0549198    -1.4417420
S           2.0972823    -0.1272346    -2.7341212
C           1.0229612    -0.9147576    -3.8662710
H           1.0825315    -0.7101011    -4.9260571
22
102_C9H9N3S_18-0-11-9 (-90,) energy =    -910.7994823
N           1.7616766    -1.3592783    -0.0400387
C           0.7704332    -1.0119607     0.9800588
H           1.2355095    -1.1146461     1.9620489
H          -0.0675361    -1.7146084     0.9245098
H           0.3955659     0.0135958     0.8713841
C           5.5952770     0.0224138     0.8065712
H           6.5707294     0.4328628     1.0489543
C           5.4296838    -1.3321756     0.5136536
H           6.2774802    -2.0115957     0.5267459
C           4.1541257    -1.8042153     0.2175644
H           3.9653667    -2.8466324    -0.0126001
C           3.0990795    -0.8884240     0.2037986
N           3.2377333     0.4044052     0.4965070
C           4.4685563     0.8430509     0.7913656
H           4.5517130     1.9026728     1.0266241
C           1.4716067    -1.5071113    -3.5617076
H           2.0280117    -1.5347304    -4.4924238
N           2.1718611    -1.4129655    -2.3801094
C           1.3557563    -1.3903496    -1.3626969
S          -0.3662916    -1.4726519    -1.7957458
C           0.1154605    -1.5562166    -3.4740295
H          -0.6201658    -1.6257006    -4.2624780
22
102_C9H9N3S_18-0-11-9 (-75,) energy =    -910.8018505
N           1.7447906    -1.2721238    -0.0397061
C           0.7317017    -0.8701302     0.9383235
H           1.1856352    -0.8735469     1.9293912
H          -0.0846946    -1.6000999     0.9277121
H           0.3284709     0.1308542     0.7417233
C           5.5949396     0.0099442     0.8705857
H           6.5748951     0.3884024     1.1443939
C           5.4322920    -1.2713996     0.3378694
H           6.2881437    -1.9247262     0.1920171
C           4.1537605    -1.7111563     0.0147396
H           3.9721447    -2.6978533    -0.3941371
C           3.0845703    -0.8290122     0.2109375
N           3.2208372     0.3881985     0.7362864
C           4.4580066     0.7917454     1.0576531
H           4.5347043     1.7897241     1.4857051
C           1.4718762    -1.6633146    -3.5485512
H           2.0315491    -1.7642170    -4.4721619
N           2.1689307    -1.5038338    -2.3722113
C           1.3506600    -1.3943717    -1.3620820
S          -0.3710924    -1.4754660    -1.7981572
C           0.1148150    -1.6800147    -3.4640487
H          -0.6189430    -1.7872491    -4.2499888
22
102_C9H9N3S_18-0-11-9 (-60,) energy =    -910.8044912
N           1.8849503    -1.2289099    -0.0771310
C           0.8801401    -0.7690426     0.8829813
H           1.3330734    -0.7383283     1.8726415
H           0.0478939    -1.4806727     0.8956283
H           0.4994596     0.2317751     0.6446980
C           5.7991914    -0.2058223     0.8824291
H           6.7969714     0.1033676     1.1775918
C           5.5831620    -1.3788748     0.1533507
H           6.4160724    -2.0181249    -0.1266087
C           4.2867653    -1.7369496    -0.1933487
H           4.0740159    -2.6367572    -0.7553650
C           3.2429449    -0.8773572     0.1828364
N           3.4322994     0.2334499     0.8967565
C           4.6888252     0.5543079     1.2354532
H           4.8022444     1.4674243     1.8173259
C           1.5534074    -1.8706454    -3.5472456
H           2.0942328    -2.0721745    -4.4655288
N           2.2727740    -1.6709048    -2.3910066
C           1.4767007    -1.4388548    -1.3834984
S          -0.2530592    -1.4485845    -1.8003882
C           0.1990193    -1.7996941    -3.4501758
H          -0.5497048    -1.9218947    -4.2196407
22
102_C9H9N3S_18-0-11-9 (-45,) energy =    -910.8065336
N           1.8991757    -1.1298550    -0.1043204
C           0.8837068    -0.6689656     0.8443910
H           1.3343234    -0.6020795     1.8319510
H           0.0629934    -1.3932916     0.8689901
H           0.4875886     0.3190159     0.5784889
C           5.8246676    -0.2511404     0.9589594
H           6.8232246     0.0203963     1.2863826
C           5.6062007    -1.3024540     0.0644802
H           6.4398687    -1.8852276    -0.3181139
C           4.3108476    -1.6187506    -0.3244143
H           4.1059808    -2.4222863    -1.0170096
C           3.2598266    -0.8383571     0.1895521
N           3.4548978     0.1566829     1.0598085
C           4.7109155     0.4356061     1.4305384
H           4.8211606     1.2540957     2.1400466
C           1.5288416    -2.0129441    -3.5210589
H           2.0553054    -2.3002104    -4.4246765
N           2.2627356    -1.7661673    -2.3835194
C           1.4856558    -1.4335142    -1.3887158
S          -0.2476835    -1.4019603    -1.8006640
C           0.1793109    -1.8807811    -3.4234052
H          -0.5787650    -2.0305619    -4.1787136
22
102_C9H9N3S_18-0-11-9 (-30,) energy =    -910.8077203
N           1.9267782    -0.9888203    -0.1049213
C           0.9108829    -0.5174488     0.8400000
H           1.3822778    -0.3626469     1.8064746
H           0.1216628    -1.2713595     0.9287737
H           0.4672950     0.4322710     0.5154532
C           5.8765176    -0.2870483     1.0219868
H           6.8795399    -0.0620410     1.3700342
C           5.6419477    -1.2059231    -0.0033841
H           6.4687172    -1.7300966    -0.4755559
C           4.3424490    -1.4677152    -0.4195908
H           4.1320010    -2.1675165    -1.2139666
C           3.2945747    -0.7704433     0.2120278
N           3.5095701     0.1023321     1.2035297
C           4.7685182     0.3299751     1.5929861
H           4.8868091     1.0481555     2.4029160
C           1.4708312    -2.1085165    -3.4458047
H           1.9696766    -2.4755655    -4.3360214
N           2.2348242    -1.8088058    -2.3417661
C           1.4916742    -1.3823737    -1.3559361
S          -0.2500538    -1.3243332    -1.7399975
C           0.1287585    -1.9252028    -3.3323046
H          -0.6487701    -2.1048076    -4.0608660
22
102_C9H9N3S_18-0-11-9 (-15,) energy =    -910.8082548
N           1.9366408    -0.8795810    -0.1416943
C           0.9066022    -0.4068133     0.7893713
H           1.3924089    -0.1201948     1.7172882
H           0.1814735    -1.2063105     0.9777601
H           0.3809827     0.4648806     0.3806629
C           5.8852907    -0.3511348     1.1027651
H           6.8853181    -0.1752099     1.4857102
C           5.6571096    -1.1122813    -0.0450556
H           6.4879537    -1.5573244    -0.5863929
C           4.3616465    -1.3157408    -0.5050662
H           4.1604176    -1.8945988    -1.3930365
C           3.3035758    -0.7269829     0.2165468
N           3.5164540    -0.0008110     1.3216708
C           4.7707848     0.1759216     1.7463921
H           4.8800418     0.7746005     2.6494699
C           1.4535818    -2.1855982    -3.4140784
H           1.9446150    -2.5876368    -4.2933924
N           2.2305816    -1.8125953    -2.3424123
C           1.4982725    -1.3501362    -1.3639320
S          -0.2523692    -1.3495674    -1.7187683
C           0.1104793    -2.0223334    -3.2846815
H          -0.6755455    -2.2513310    -3.9898989
22
102_C9H9N3S_18-0-11-9 (0,) energy =    -910.8083944
N           1.9426783    -0.8038281    -0.1974985
C           0.9070232    -0.3021371     0.7129679
H           1.3976889     0.0901458     1.5986668
H           0.2270087    -1.1130155     0.9992135
H           0.3301184     0.4950735     0.2298573
C           5.8805047    -0.4318559     1.1442324
H           6.8762512    -0.3032762     1.5559584
C           5.6672525    -1.0141725    -0.1062647
H           6.5064514    -1.3574207    -0.7057736
C           4.3771609    -1.1626507    -0.6012742
H           4.1882600    -1.6096499    -1.5647650
C           3.3058522    -0.7093737     0.1956805
N           3.5064653    -0.1500840     1.3965085
C           4.7557574    -0.0186166     1.8500293
H           4.8519186     0.4431345     2.8316079
C           1.4493761    -2.2924611    -3.3913480
H           1.9376020    -2.7355685    -4.2522674
N           2.2312927    -1.8493244    -2.3505893
C           1.5030166    -1.3429385    -1.3907161
S          -0.2512849    -1.3854453    -1.7278242
C           0.1056644    -2.1386206    -3.2575806
H          -0.6835372    -2.4120760    -3.9431432
22
102_C9H9N3S_18-0-11-9 (15,) energy =    -910.8082548
N           1.9477336    -0.7149226    -0.2202250
C           0.9220784    -0.1766874     0.6796227
H           1.4212937     0.3090519     1.5127071
H           0.2833857    -0.9792251     1.0684360
H           0.2998456     0.5475122     0.1421668
C           5.8743149    -0.5145957     1.1805238
H           6.8676354    -0.4376691     1.6106984
C           5.6713267    -0.9026694    -0.1450289
H           6.5165474    -1.1348334    -0.7877669
C           4.3837291    -0.9896787    -0.6605372
H           4.2011493    -1.2934956    -1.6795664
C           3.3065801    -0.6827984     0.1953140
N           3.4959985    -0.3042665     1.4660483
C           4.7438574    -0.2233999     1.9364479
H           4.8338066     0.0897491     2.9755563
C           1.4404291    -2.3790246    -3.3219887
H           1.9258966    -2.8625254    -4.1625190
N           2.2267588    -1.8679432    -2.3161010
C           1.5002999    -1.3189085    -1.3788721
S          -0.2559702    -1.4014424    -1.6940797
C           0.0961595    -2.2331116    -3.1842789
H          -0.6957899    -2.5496335    -3.8477795
22
102_C9H9N3S_18-0-11-9 (30,) energy =    -910.8077204
N           1.9603068    -0.6075046    -0.2471223
C           0.9557972    -0.0583778     0.6675447
H           1.4625343     0.5400574     1.4194416
H           0.3964151    -0.8530035     1.1771454
H           0.2572041     0.5685237     0.1035656
C           5.8705820    -0.6164263     1.1924176
H           6.8621285    -0.6001174     1.6333092
C           5.6770334    -0.8081686    -0.1774522
H           6.5267248    -0.9376407    -0.8426687
C           4.3912442    -0.8209942    -0.7037832
H           4.2114135    -0.9739229    -1.7570239
C           3.3128477    -0.6517834     0.1859449
N           3.4899237    -0.4552270     1.4978493
C           4.7375912    -0.4372109     1.9789458
H           4.8247401    -0.2735196     3.0519698
C           1.4357089    -2.4380422    -3.2464552
H           1.9193601    -2.9521109    -4.0697824
N           2.2254143    -1.8576915    -2.2811364
C           1.4986860    -1.2794781    -1.3627135
S          -0.2584702    -1.4178459    -1.6417872
C           0.0904440    -2.3150078    -3.0954909
H          -0.7039477    -2.6789160    -3.7311966
22
102_C9H9N3S_18-0-11-9 (45,) energy =    -910.8065339
N           1.9618924    -0.5058938    -0.2911017
C           0.9733113     0.0475274     0.6364882
H           1.4829073     0.7057278     1.3363030
H           0.4610655    -0.7353429     1.2095251
H           0.2342736     0.6230461     0.0694352
C           5.8487796    -0.6880457     1.1820433
H           6.8369909    -0.7210129     1.6296855
C           5.6711536    -0.6863938    -0.2041889
H           6.5285845    -0.7063882    -0.8715860
C           4.3884226    -0.6388627    -0.7346539
H           4.2143291    -0.6404678    -1.8009818
C           3.3053043    -0.6178920     0.1620920
N           3.4635045    -0.6005605     1.4888516
C           4.7094794    -0.6339339     1.9780055
H           4.7893417    -0.6188647     3.0637817
C           1.4482282    -2.5338142    -3.1572005
H           1.9374699    -3.1101172    -3.9348453
N           2.2304529    -1.9012471    -2.2184813
C           1.4944433    -1.2541704    -1.3560961
S          -0.2575332    -1.3857522    -1.6533442
C           0.1022590    -2.3827271    -3.0394302
H          -0.6872720    -2.7804672    -3.6607431
22
102_C9H9N3S_18-0-11-9 (60,) energy =    -910.8044912
N           1.9555200    -0.4192649    -0.3551543
C           0.9786817     0.1419847     0.5795775
H           1.4924987     0.8318746     1.2470831
H           0.4890412    -0.6287278     1.1875159
H           0.2208684     0.6939930     0.0137015
C           5.8100582    -0.7691226     1.1643615
H           6.7914208    -0.8499487     1.6211749
C           5.6582148    -0.5656493    -0.2103441
H           6.5275057    -0.4720481    -0.8555815
C           4.3814715    -0.4598623    -0.7468177
H           4.2180967    -0.3005857    -1.8045108
C           3.2881841    -0.5945457     0.1229864
N           3.4184513    -0.7674118     1.4392595
C           4.6586125    -0.8513938     1.9407253
H           4.7234113    -0.9925493     3.0182674
C           1.4526858    -2.6432526    -3.0689171
H           1.9469181    -3.2827424    -3.7921989
N           2.2262934    -1.9620746    -2.1568854
C           1.4817154    -1.2444558    -1.3611012
S          -0.2634534    -1.3633235    -1.6870364
C           0.1073949    -2.4605027    -2.9939851
H          -0.6765898    -2.8900929    -3.6009595
22
102_C9H9N3S_18-0-11-9 (75,) energy =    -910.8018501
N           1.9527085    -0.3495469    -0.4156992
C           0.9929915     0.2436610     0.5178127
H           1.5187720     0.9645365     1.1442045
H           0.5178927    -0.5025898     1.1662837
H           0.2228369     0.7752169    -0.0510553
C           5.7684525    -0.8552184     1.1599381
H           6.7391105    -0.9851875     1.6284091
C           5.6505991    -0.4298107    -0.1656961
H           6.5341451    -0.2103748    -0.7588119
C           4.3830047    -0.2688826    -0.7131084
H           4.2366636     0.0651651    -1.7332683
C           3.2757314    -0.5742573     0.0874003
N           3.3710426    -0.9620177     1.3588319
C           4.5998350    -1.0969735     1.8772117
H           4.6427204    -1.4137958     2.9178021
C           1.4397980    -2.7539431    -2.9643028
H           1.9323736    -3.4526928    -3.6318458
N           2.2120031    -2.0278265    -2.0859016
C           1.4677105    -1.2420283    -1.3575698
S          -0.2728152    -1.3478150    -1.7047586
C           0.0974151    -2.5403280    -2.9270736
H          -0.6853392    -2.9978529    -3.5149167
22
102_C9H9N3S_18-0-11-9 (90,) energy =    -910.7994828
N           1.9722109    -0.2977831    -0.4824334
C           1.0385470     0.3587669     0.4344945
H           1.5831916     1.1203965     0.9951167
H           0.5806136    -0.3425272     1.1434797
H           0.2533626     0.8572769    -0.1436135
C           5.7596657    -0.9136799     1.1298258
H           6.7214203    -1.0870549     1.6028032
C           5.6613476    -0.2578734    -0.0982124
H           6.5504389     0.1005989    -0.6096344
C           4.4007149    -0.0562777    -0.6532513
H           4.2637817     0.4515196    -1.6012291
C           3.2901202    -0.5454297     0.0387889
N           3.3653718    -1.1589429     1.2197263
C           4.5834739    -1.3356730     1.7478520
H           4.6146237    -1.8387270     2.7127502
C           1.4260620    -2.8672612    -2.8510363
H           1.9101240    -3.6204396    -3.4633980
N           2.2058496    -2.0974863    -2.0172612
C           1.4706712    -1.2474884    -1.3550106
S          -0.2688725    -1.3440067    -1.7089504
C           0.0878761    -2.6259826    -2.8427039
H          -0.6989134    -3.1084521    -3.4046864
22
102_C9H9N3S_18-0-11-9 (105,) energy =    -910.8006575
N           2.3068279    -1.8848647    -0.6624302
C           1.6611546    -2.8790329     0.2007032
H           2.4317776    -3.3541886     0.8112787
H           1.1801409    -3.6288990    -0.4294625
H           0.8878774    -2.4429494     0.8473574
C           5.5179294     0.3102719     0.8165495
H           6.3859677     0.8738065     1.1438465
C           4.4403869     0.0703520     1.6698684
H           4.4376003     0.4601332     2.6842534
C           3.3491317    -0.6514518     1.1947628
H           2.4816442    -0.8313425     1.8208697
C           3.3976018    -1.1476692    -0.1164956
N           4.4124498    -0.9000345    -0.9486479
C           5.4418416    -0.1810341    -0.4857357
H           6.2459840     0.0039755    -1.1955638
C          -0.3690887    -0.8783311    -2.7412016
H          -1.4148797    -1.0530408    -2.9693388
N           0.2174467    -1.6169851    -1.7340391
C           1.4686611    -1.2758937    -1.5853692
S           2.0368682    -0.0218374    -2.7011868
C           0.4209583     0.0335171    -3.3659372
H           0.1682370     0.7221938    -4.1599213
22
102_C9H9N3S_18-0-11-9 (120,) energy =    -910.8040772
N           2.2634062    -1.8338546    -0.6122661
C           1.5754980    -2.7879496     0.2618187
H           2.3239030    -3.2956921     0.8738899
H           1.0561519    -3.5167632    -0.3612103
H           0.8276019    -2.3086354     0.9073090
C           5.5207329     0.3163452     0.8176920
H           6.3959810     0.8777338     1.1283116
C           4.5532027    -0.0968991     1.7351797
H           4.6454321     0.1540989     2.7885069
C           3.4454203    -0.8077361     1.2853178
H           2.6634458    -1.1100678     1.9725647
C           3.3658088    -1.1220434    -0.0823061
N           4.2717155    -0.7012283    -0.9706718
C           5.3165978     0.0042053    -0.5245635
H           6.0245598     0.3297562    -1.2844951
C          -0.3494757    -0.9024212    -2.8046488
H          -1.3998060    -1.0578615    -3.0256232
N           0.2045124    -1.5747263    -1.7354661
C           1.4656831    -1.2644688    -1.6005761
S           2.0875663    -0.1340858    -2.8127561
C           0.4797450    -0.0760969    -3.4945671
H           0.2561821     0.5555815    -4.3431266
22
102_C9H9N3S_18-0-11-9 (135,) energy =    -910.8073192
N           2.2210165    -1.7304120    -0.5537995
C           1.5201252    -2.6722656     0.3215384
H           2.2613402    -3.2265154     0.9011200
H           0.9498217    -3.3614460    -0.3001994
H           0.8170742    -2.1710146     0.9997782
C           5.5694860     0.3165644     0.8023297
H           6.4637168     0.8576153     1.0937079
C           4.6987015    -0.2249386     1.7507529
H           4.8896238    -0.0985320     2.8131180
C           3.5616177    -0.9048384     1.3308415
H           2.8571007    -1.2987321     2.0534971
C           3.3474339    -1.0546518    -0.0531743
N           4.1625846    -0.5115882    -0.9642378
C           5.2390032     0.1583346    -0.5407919
H           5.8653199     0.5844474    -1.3224081
C          -0.3069771    -0.9526580    -2.8981476
H          -1.3458812    -1.1375818    -3.1485697
N           0.2161668    -1.5581392    -1.7762917
C           1.4677983    -1.2209546    -1.6095673
S           2.1173530    -0.1436624    -2.8536048
C           0.5374689    -0.1516019    -3.5994767
H           0.3371820     0.4306126    -4.4884580
22
102_C9H9N3S_18-0-11-9 (150,) energy =    -910.8096678
N           2.1557309    -1.6243037    -0.4891869
C           1.4536956    -2.5691198     0.3817922
H           2.1891301    -3.1992552     0.8872013
H           0.8029986    -3.1845650    -0.2360975
H           0.8320294    -2.0582027     1.1286689
C           5.5982560     0.2992812     0.8035616
H           6.5123340     0.8144503     1.0793662
C           4.8119603    -0.3608876     1.7517188
H           5.0946186    -0.3595524     2.8010778
C           3.6466318    -1.0044875     1.3563020
H           3.0140254    -1.4891094     2.0893029
C           3.3074708    -0.9891881    -0.0134799
N           4.0467734    -0.3378886    -0.9189181
C           5.1555722     0.2894577    -0.5153942
H           5.7129035     0.8055387    -1.2950712
C          -0.2623076    -1.0315833    -2.9977111
H          -1.2780421    -1.2705474    -3.2934068
N           0.2231742    -1.5731700    -1.8287786
C           1.4516899    -1.1816134    -1.6086143
S           2.1203642    -0.1179457    -2.8538906
C           0.5869573    -0.2229057    -3.6843303
H           0.4129649     0.3156302    -4.6059254
22
102_C9H9N3S_18-0-11-9 (165,) energy =    -910.8109763
N           2.0851421    -1.5179185    -0.4151165
C           1.3856662    -2.4594491     0.4626048
H           2.0905029    -3.2112689     0.8291168
H           0.6010315    -2.9399777    -0.1161975
H           0.9275943    -1.9451741     1.3168240
C           5.6181913     0.2808588     0.8077228
H           6.5499666     0.7713623     1.0685108
C           4.9102923    -0.4929936     1.7322017
H           5.2786859    -0.6141015     2.7474343
C           3.7203695    -1.1030245     1.3603517
H           3.1597011    -1.6851975     2.0799718
C           3.2655593    -0.9276632     0.0337645
N           3.9366777    -0.1761068    -0.8469748
C           5.0754729     0.4097449    -0.4660982
H           5.5715630     1.0092162    -1.2273360
C          -0.2033680    -1.1312243    -3.0842411
H          -1.1835872    -1.4386182    -3.4320424
N           0.2415819    -1.6127595    -1.8749677
C           1.4325572    -1.1489058    -1.5929680
S           2.1088398    -0.0735647    -2.8242069
C           0.6393809    -0.2933585    -3.7430311
H           0.4938611     0.2054958    -4.6915549
22
102_C9H9N3S_18-0-11-9 (180,) energy =    -910.8114128
N           2.0096314    -1.4140713    -0.3420465
C           1.3056561    -2.3468406     0.5420663
H           1.9269403    -3.2267955     0.7427761
H           0.3919436    -2.6560892     0.0416119
H           1.0549033    -1.8595655     1.4909131
C           5.6256463     0.2574479     0.8159883
H           6.5724093     0.7248952     1.0647627
C           4.9897340    -0.6287186     1.6909140
H           5.4364756    -0.8711552     2.6514922
C           3.7789110    -1.2067231     1.3367966
H           3.2862332    -1.8923556     2.0133764
C           3.2209083    -0.8732016     0.0810128
N           3.8302771    -0.0246637    -0.7554602
C           4.9953757     0.5207438    -0.3950196
H           5.4380452     1.2016101    -1.1198997
C          -0.1367662    -1.2425823    -3.1502990
H          -1.0718689    -1.6241057    -3.5456640
N           0.2685106    -1.6674464    -1.9069077
C           1.4100617    -1.1225365    -1.5696969
S           2.0804989    -0.0250813    -2.7845558
C           0.6878267    -0.3670181    -3.7823140
H           0.5700780     0.0935096    -4.7538097
