18
443_C8H6ClN3_4-5-14-12 (-165,) energy =    -932.8731619
C           5.7751591     1.1347608    -0.2137058
H           6.5713756     1.8630612    -0.3274235
C           4.9516454     1.1267707     0.9103312
H           5.0778882     1.8613110     1.7033515
N           3.9775908     0.2407602     1.0945387
C           3.7386376    -0.6980058     0.1775280
C           4.4895252    -0.7380149    -1.0184138
Cl          4.1889454    -1.8277009    -2.3692611
C           5.5233328     0.1816918    -1.1932960
H           6.1052811     0.1480034    -2.1081952
C           1.1658867    -3.1930130     0.5884460
H           0.6201254    -4.1106171     0.4228096
C           2.3182504    -2.7943916    -0.0393123
H           2.9240179    -3.2940674    -0.7737039
N           2.6717531    -1.5766128     0.5000154
N           1.7648205    -1.1684195     1.4422784
C           0.8707973    -2.1405250     1.4913069
H           0.0340758    -2.0523106     2.1726674
18
443_C8H6ClN3_4-5-14-12 (-150,) energy =    -932.8751127
C           5.7928698     1.1140292    -0.1977280
H           6.6064866     1.8231575    -0.3105411
C           5.0218069     1.0755892     0.9628770
H           5.2102033     1.7657217     1.7827460
N           4.0296092     0.2083531     1.1525930
C           3.7247658    -0.6675642     0.1946875
C           4.4138390    -0.6700863    -1.0359709
Cl          3.9804190    -1.6829208    -2.4059927
C           5.4698342     0.2222939    -1.2148448
H           6.0081381     0.2221369    -2.1567336
C           1.2265696    -3.2185133     0.6434338
H           0.7437221    -4.1793462     0.5394763
C           2.4129912    -2.8235561     0.0770692
H           3.1136113    -3.3565635    -0.5435019
N           2.6470632    -1.5358361     0.4976235
N           1.6438945    -1.0786069     1.3062096
C           0.7959955    -2.0914479     1.3883666
H          -0.1056610    -1.9781484     1.9766876
18
443_C8H6ClN3_4-5-14-12 (-135,) energy =    -932.8761393
C           5.8084242     1.0897796    -0.1869043
H           6.6391686     1.7802807    -0.2912176
C           5.0778812     1.0161352     0.9985347
H           5.3202138     1.6559414     1.8444465
N           4.0644679     0.1699375     1.1821807
C           3.7013082    -0.6363035     0.1852635
C           4.3531523    -0.6080037    -1.0625831
Cl          3.8369972    -1.5714817    -2.4355440
C           5.4305287     0.2587847    -1.2370123
H           5.9421892     0.2875117    -2.1932142
C           1.2832524    -3.2388522     0.7099424
H           0.8587181    -4.2318486     0.6816934
C           2.4829119    -2.8343615     0.1764954
H           3.2511390    -3.3778167    -0.3505390
N           2.6103969    -1.4974373     0.4583256
N           1.5423650    -1.0190777     1.1597426
C           0.7444827    -2.0676843     1.3000829
H          -0.1989658    -1.9481742     1.8172183
18
443_C8H6ClN3_4-5-14-12 (-120,) energy =    -932.8759665
C           5.8243738     1.0713367    -0.1938474
H           6.6661571     1.7497429    -0.2900019
C           5.1416015     0.9431682     1.0157844
H           5.4374298     1.5232048     1.8872266
N           4.1135036     0.1111718     1.1913856
C           3.6920049    -0.6164208     0.1584790
C           4.3030136    -0.5425786    -1.1054455
Cl          3.7197931    -1.4555162    -2.4820695
C           5.3931218     0.3092119    -1.2755605
H           5.8748627     0.3777700    -2.2451779
C           1.3333930    -3.2469174     0.7728829
H           0.9542836    -4.2570224     0.8277674
C           2.5498837    -2.8415935     0.2765042
H           3.3758465    -3.3936463    -0.1462628
N           2.5924261    -1.4781810     0.4040328
N           1.4647967    -0.9807502     0.9847262
C           0.7047237    -2.0480794     1.1922467
H          -0.2759457    -1.9215304     1.6327367
18
443_C8H6ClN3_4-5-14-12 (-105,) energy =    -932.8750957
C           5.8260208     1.0601077    -0.1920420
H           6.6678051     1.7381800    -0.2919536
C           5.2212096     0.8503962     1.0478496
H           5.5818651     1.3620367     1.9373796
N           4.1913555     0.0201629     1.2279511
C           3.6997009    -0.6243566     0.1718404
C           4.2366726    -0.4752328    -1.1165789
Cl          3.5682843    -1.3169305    -2.4956870
C           5.3234374     0.3796818    -1.2970793
H           5.7500556     0.5095416    -2.2860330
C           1.3556210    -3.2523587     0.8553077
H           1.0002895    -4.2632755     0.9925209
C           2.6118172    -2.8590442     0.4518201
H           3.4968083    -3.4208404     0.1904978
N           2.5993466    -1.4928294     0.4103448
N           1.4007029    -0.9739627     0.7923567
C           0.6502296    -2.0401495     1.0474395
H          -0.3769819    -1.9015634     1.3594878
18
443_C8H6ClN3_4-5-14-12 (-90,) energy =    -932.8749792
C           5.8367313     1.0631747    -0.2398005
H           6.6680919     1.7481984    -0.3743401
C           5.3822477     0.7368358     1.0380887
H           5.8525438     1.1604749     1.9225597
N           4.3602177    -0.0949270     1.2593322
C           3.7496776    -0.6443299     0.2121744
C           4.1365661    -0.3811781    -1.1108870
Cl          3.3217407    -1.1226060    -2.4641308
C           5.2011003     0.4904046    -1.3378025
H           5.5145874     0.7091601    -2.3530798
C           1.3735870    -3.2529982     0.8774984
H           1.0173016    -4.2534439     1.0754864
C           2.6807067    -2.8531379     0.7011854
H           3.6139013    -3.3973835     0.7178178
N           2.6500336    -1.5056337     0.4891921
N           1.3860561    -1.0043275     0.5029101
C           0.6193758    -2.0640930     0.7438155
H          -0.4531448    -1.9357217     0.8139457
18
443_C8H6ClN3_4-5-14-12 (-75,) energy =    -932.8762025
C           5.8454238     1.0402306    -0.2569392
H           6.6789263     1.7221110    -0.3936907
C           5.4730452     0.6156200     1.0179096
H           6.0129453     0.9540261     1.8993525
N           4.4423377    -0.2050584     1.2414236
C           3.7527501    -0.6616905     0.1980467
C           4.0646384    -0.3099747    -1.1254324
Cl          3.1869539    -0.9639100    -2.4831255
C           5.1271834     0.5640743    -1.3505806
H           5.3822422     0.8523035    -2.3649001
C           1.3837528    -3.2443594     0.9595329
H           1.0337521    -4.2242496     1.2498669
C           2.6901860    -2.8136585     0.8871446
H           3.6297596    -3.3053808     1.0927469
N           2.6482366    -1.5074519     0.4907921
N           1.3783746    -1.0698123     0.2759663
C           0.6179917    -2.1195514     0.5709214
H          -0.4582902    -2.0305335     0.4976187
18
443_C8H6ClN3_4-5-14-12 (-60,) energy =    -932.8778505
C           5.8440963     1.0199383    -0.2386412
H           6.6853127     1.6958894    -0.3551205
C           5.5138218     0.4988104     1.0110985
H           6.0964088     0.7504653     1.8944498
N           4.4709415    -0.3120794     1.2096961
C           3.7284227    -0.6715944     0.1631677
C           4.0036964    -0.2301678    -1.1431170
Cl          3.0974889    -0.7786574    -2.5286443
C           5.0744480     0.6416540    -1.3357084
H           5.3005509     0.9990549    -2.3348008
C           1.3768456    -3.2183246     1.0614206
H           1.0326277    -4.1656006     1.4501634
C           2.6721117    -2.7546773     1.0226963
H           3.6076402    -3.1781038     1.3565722
N           2.6246394    -1.5130592     0.4517920
N           1.3608545    -1.1499994     0.1023218
C           0.6103368    -2.1787269     0.4801552
H          -0.4602621    -2.1371280     0.3261972
18
443_C8H6ClN3_4-5-14-12 (-45,) energy =    -932.8793600
C           5.8473813     0.9955489    -0.2182943
H           6.6949736     1.6669487    -0.3112192
C           5.5454315     0.3863260     0.9976737
H           6.1584099     0.5596425     1.8793708
N           4.4944864    -0.4195857     1.1663398
C           3.7103348    -0.6898924     0.1215912
C           3.9612814    -0.1642948    -1.1600644
Cl          3.0367903    -0.6049631    -2.5725356
C           5.0401954     0.7051899    -1.3150914
H           5.2456833     1.1270285    -2.2933102
C           1.3754391    -3.1880997     1.1636084
H           1.0331822    -4.0894482     1.6507542
C           2.6572864    -2.6914362     1.1389376
H           3.5816923    -3.0333770     1.5784880
N           2.6145613    -1.5390091     0.4004472
N           1.3621094    -1.2619901    -0.0558093
C           0.6176224    -2.2569951     0.4095944
H          -0.4427613    -2.2704289     0.1926755
18
443_C8H6ClN3_4-5-14-12 (-30,) energy =    -932.8801979
C           5.8533912     0.9766187    -0.2103848
H           6.7040276     1.6465770    -0.2817137
C           5.5796047     0.2842895     0.9664919
H           6.2194499     0.3864546     1.8402585
N           4.5268519    -0.5229527     1.1060312
C           3.7024989    -0.7110608     0.0726715
C           3.9278741    -0.1032175    -1.1792023
Cl          2.9822153    -0.4299188    -2.6095586
C           5.0118766     0.7660549    -1.2991508
H           5.1944132     1.2509599    -2.2523811
C           1.3670635    -3.1466918     1.2405773
H           1.0138078    -3.9891340     1.8171197
C           2.6354284    -2.6197744     1.2318889
H           3.5358483    -2.8731980     1.7684097
N           2.6195555    -1.5764769     0.3409484
N           1.3890516    -1.3930954    -0.2151460
C           0.6389448    -2.3421072     0.3268033
H          -0.4044613    -2.4149619     0.0480173
18
443_C8H6ClN3_4-5-14-12 (-15,) energy =    -932.8801156
C           5.8752955     0.9515390    -0.2154800
H           6.7339132     1.6119964    -0.2769915
C           5.6321304     0.1873470     0.9224028
H           6.3037135     0.2211267     1.7775992
N           4.5756350    -0.6152790     1.0436404
C           3.7023213    -0.7245412     0.0378913
C           3.8910068    -0.0341855    -1.1792398
Cl          2.8934185    -0.2154000    -2.6014357
C           4.9874561     0.8233431    -1.2789882
H           5.1391624     1.3692253    -2.2042054
C           1.3557657    -3.0938762     1.3115721
H           0.9815725    -3.8663315     1.9675280
C           2.6011677    -2.5183130     1.3354112
H           3.4600278    -2.6610986     1.9700611
N           2.6316571    -1.6043227     0.3084918
N           1.4452827    -1.5506866    -0.3618292
C           0.6835422    -2.4515511     0.2395376
H          -0.3279436    -2.6081801    -0.1128474
18
443_C8H6ClN3_4-5-14-12 (0,) energy =    -932.8797123
C           5.9221390     0.8841385    -0.2558793
H           6.8101944     1.5023960    -0.3342829
C           5.7004049     0.0719898     0.8525187
H           6.4123538     0.0327908     1.6742925
N           4.6222822    -0.6977889     0.9802292
C           3.6896168    -0.7181486     0.0217162
C           3.8225901     0.0705108    -1.1435705
Cl          2.6865211     0.1400115    -2.4694925
C           4.9602900     0.8720625    -1.2598055
H           5.0736474     1.4821433    -2.1496689
C           1.3248845    -3.0394704     1.3542253
H           0.9144865    -3.7347775     2.0719773
C           2.5034137    -2.3451131     1.4558847
H           3.2688035    -2.3116015     2.2125215
N           2.6127169    -1.5851441     0.3127732
N           1.5487724    -1.7658415    -0.5200828
C           0.7777221    -2.6397154     0.1077142
H          -0.1485317    -2.9550490    -0.3553449
18
443_C8H6ClN3_4-5-14-12 (15,) energy =    -932.8801155
C           5.9525561     0.8102363    -0.3144910
H           6.8638092     1.3887188    -0.4249250
C           5.7647344    -0.0409370     0.7709809
H           6.5213215    -0.1401844     1.5463820
N           4.6706266    -0.7849710     0.9271273
C           3.6857945    -0.7194293     0.0260613
C           3.7562611     0.1557343    -1.0796400
Cl          2.4709909     0.4233276    -2.2317406
C           4.9209275     0.9069828    -1.2430111
H           4.9943970     1.5753757    -2.0944062
C           1.2676814    -2.9787284     1.3638783
H           0.7932872    -3.5959007     2.1128923
C           2.3627747    -2.1688647     1.5301466
H           2.9960240    -1.9607345     2.3766083
N           2.5934151    -1.5654465     0.3162355
N           1.7041879    -1.9740019    -0.6335919
C           0.9057666    -2.8183824     0.0011145
H           0.0968945    -3.2903003    -0.5418649
18
443_C8H6ClN3_4-5-14-12 (30,) energy =    -932.8801979
C           5.9652411     0.7951337    -0.3392936
H           6.8742834     1.3740075    -0.4660276
C           5.8314486    -0.1143899     0.7067401
H           6.6293667    -0.2579040     1.4320262
N           4.7446056    -0.8683924     0.8789192
C           3.7160377    -0.7391212     0.0374162
C           3.7300943     0.1969891    -1.0165982
Cl          2.3631903     0.5257023    -2.0512279
C           4.8870812     0.9524307    -1.2057348
H           4.9195903     1.6703486    -2.0185290
C           1.2133437    -2.9130629     1.3646690
H           0.6666217    -3.4536629     2.1234557
C           2.2701616    -2.0564569     1.5539229
H           2.8036359    -1.7376300     2.4351632
N           2.6271083    -1.5949739     0.3120761
N           1.8574058    -2.1302717    -0.6768555
C           1.0059124    -2.9206369    -0.0386796
H           0.2723114    -3.4766089    -0.6082761
18
443_C8H6ClN3_4-5-14-12 (45,) energy =    -932.8793600
C           5.9681140     0.7862806    -0.3583691
H           6.8677557     1.3766359    -0.4996293
C           5.8946381    -0.1802973     0.6422465
H           6.7323681    -0.3580541     1.3129021
N           4.8215839    -0.9519150     0.8309152
C           3.7509996    -0.7747464     0.0550845
C           3.7080321     0.2102138    -0.9498423
Cl          2.2790186     0.5573904    -1.8886351
C           4.8480109     0.9846813    -1.1613732
H           4.8376579     1.7438948    -1.9363384
C           1.1453780    -2.8522524     1.3487979
H           0.5218603    -3.3158017     2.0992825
C           2.1812301    -1.9721666     1.5558984
H           2.6208309    -1.5590705     2.4507472
N           2.6706020    -1.6481147     0.3186490
N           2.0008956    -2.2788186    -0.6849618
C           1.0844990    -3.0064666    -0.0591321
H           0.4118451    -3.6239092    -0.6404669
18
443_C8H6ClN3_4-5-14-12 (60,) energy =    -932.8778505
C           5.9707546     0.7879946    -0.3927117
H           6.8594258     1.3895823    -0.5554484
C           5.9624530    -0.2321946     0.5568877
H           6.8419653    -0.4415804     1.1615967
N           4.9040814    -1.0183447     0.7721227
C           3.7894677    -0.8002132     0.0750046
C           3.6857766     0.2290442    -0.8772179
Cl          2.1987470     0.5834518    -1.7169880
C           4.8058783     1.0233580    -1.1183907
H           4.7493717     1.8189946    -1.8537704
C           1.0798327    -2.7860064     1.3147249
H           0.3798402    -3.1772665     2.0385069
C           2.0928457    -1.8820135     1.5396549
H           2.4332396    -1.3762204     2.4308802
N           2.7155789    -1.6874386     0.3378576
N           2.1478568    -2.4115189    -0.6644773
C           1.1667111    -3.0793608    -0.0682695
H           0.5558514    -3.7554128    -0.6525806
18
443_C8H6ClN3_4-5-14-12 (75,) energy =    -932.8762025
C           5.9751988     0.7898084    -0.4155713
H           6.8551297     1.3992366    -0.5964413
C           6.0234415    -0.2890620     0.4664145
H           6.9410546    -0.5379200     0.9946208
N           4.9752110    -1.0822788     0.7070051
C           3.8214936    -0.8169938     0.0977146
C           3.6669454     0.2603167    -0.7900322
Cl          2.1328858     0.6273215    -1.5338341
C           4.7701411     1.0708854    -1.0538838
H           4.6736851     1.9057339    -1.7399570
C           1.0154939    -2.7185858     1.2694682
H           0.2449131    -3.0433829     1.9533527
C           1.9946730    -1.7781939     1.5026657
H           2.2304938    -1.1737961     2.3663498
N           2.7457278    -1.7073185     0.3642634
N           2.2901728    -2.5380461    -0.6117341
C           1.2515977    -3.1542613    -0.0560600
H           0.7085748    -3.8958343    -0.6277854
18
443_C8H6ClN3_4-5-14-12 (90,) energy =    -932.8749792
C           5.9945319     0.7688843    -0.4246874
H           6.8766656     1.3747262    -0.6072100
C           6.0714377    -0.3840613     0.3568851
H           7.0147802    -0.6964729     0.7989725
N           5.0188106    -1.1679964     0.6073739
C           3.8385670    -0.8309373     0.0930230
C           3.6600855     0.3117058    -0.7019196
Cl          2.0982799     0.7325999    -1.3565464
C           4.7618124     1.1251850    -0.9642734
H           4.6459122     2.0118908    -1.5784687
C           0.9682523    -2.6693619     1.2222316
H           0.1393468    -2.9335818     1.8626484
C           1.8800938    -1.6540151     1.4149856
H           1.9921998    -0.9194591     2.1993270
N           2.7473218    -1.7051045     0.3628669
N           2.4404350    -2.6943991    -0.5181845
C           1.3677899    -3.2774544     0.0094684
H           0.9177497    -4.1185034    -0.5021937
18
443_C8H6ClN3_4-5-14-12 (105,) energy =    -932.8750957
C           6.0073754     0.7291747    -0.3989326
H           6.9051214     1.3200118    -0.5516707
C           6.0718242    -0.5218904     0.2157138
H           7.0224743    -0.9284325     0.5535008
N           4.9982148    -1.2838344     0.4373590
C           3.8087580    -0.8424010     0.0338382
C           3.6430267     0.4001228    -0.5980380
Cl          2.0756459     0.9574599    -1.1363965
C           4.7647708     1.2004171    -0.8118992
H           4.6564405     2.1626472    -1.3010556
C           0.9494593    -2.6674369     1.2008266
H           0.0870277    -2.8884595     1.8127099
C           1.7304406    -1.5343122     1.2411271
H           1.6830821    -0.6442131     1.8515324
N           2.6951775    -1.6900849     0.2853893
N           2.5962614    -2.8836915    -0.3606928
C           1.5338054    -3.4637830     0.1867672
H           1.2206960    -4.4371320    -0.1686175
18
443_C8H6ClN3_4-5-14-12 (120,) energy =    -932.8759665
C           6.0138338     0.7277649    -0.4083273
H           6.9134609     1.3160077    -0.5590628
C           6.0824790    -0.5697316     0.0992236
H           7.0401202    -1.0197551     0.3517519
N           5.0065728    -1.3271305     0.3201537
C           3.8045725    -0.8399392     0.0171890
C           3.6345699     0.4492734    -0.5169602
Cl          2.0622180     1.0757598    -0.9685356
C           4.7603601     1.2453568    -0.7210895
H           4.6455292     2.2422778    -1.1332726
C           0.9056378    -2.6284165     1.1385904
H          -0.0047584    -2.8110295     1.6907497
C           1.6336366    -1.4626866     1.0983682
H           1.4914766    -0.5072643     1.5807252
N           2.6993337    -1.6926937     0.2686954
N           2.7093716    -2.9666527    -0.2141256
C           1.6202524    -3.5213347     0.3017348
H           1.3792316    -4.5464043     0.0509376
18
443_C8H6ClN3_4-5-14-12 (135,) energy =    -932.8761393
C           5.6884744     1.1802822    -0.3043147
H           6.4425197     1.9418408    -0.4753328
C           4.6758996     1.3681959     0.6357702
H           4.6234513     2.2810862     1.2252864
N           3.7157466     0.4726883     0.8658737
C           3.7221333    -0.6761255     0.1906254
C           4.7256285    -0.9737777    -0.7513046
Cl          4.8347455    -2.5168432    -1.5800013
C           5.7093252    -0.0202445    -1.0074414
H           6.4861236    -0.2373093    -1.7329880
C           0.9603085    -2.9601384     0.4166241
H           0.1756729    -3.6195671     0.0752013
C           1.8837793    -2.2998539    -0.3570562
H           2.0298789    -2.2670143    -1.4251670
N           2.6736869    -1.5765524     0.5008039
N           2.2949583    -1.7366052     1.8017471
C           1.2709023    -2.5756683     1.7454899
H           0.7897493    -2.8843321     2.6647417
18
443_C8H6ClN3_4-5-14-12 (150,) energy =    -932.8751127
C           5.7119509     1.1764948    -0.2810833
H           6.4809119     1.9269339    -0.4330735
C           4.7314853     1.3326125     0.6973580
H           4.7196508     2.2085693     1.3427436
N           3.7572839     0.4488063     0.9031553
C           3.7018189    -0.6585909     0.1626502
C           4.6806555    -0.9301311    -0.8158635
Cl          4.7722229    -2.4298781    -1.7285926
C           5.6804517     0.0142149    -1.0440913
H           6.4333906    -0.1852328    -1.7992255
C           1.0072275    -3.0273251     0.4418120
H           0.2817814    -3.7634598     0.1271949
C           1.9433773    -2.4008057    -0.3426835
H           2.1435879    -2.4705592    -1.3986747
N           2.6314093    -1.5334607     0.4723292
N           2.1811172    -1.5879953     1.7620803
C           1.2089524    -2.4856370     1.7366022
H           0.6854590    -2.7223831     2.6541236
18
443_C8H6ClN3_4-5-14-12 (165,) energy =    -932.8731620
C           5.7327529     1.1742072    -0.2503734
H           6.5114019     1.9187659    -0.3794318
C           4.7857617     1.2803904     0.7662934
H           4.8083834     2.1110458     1.4690455
N           3.8067562     0.3989513     0.9461988
C           3.6956388    -0.6581361     0.1402983
C           4.6396327    -0.8767927    -0.8877084
Cl          4.6961228    -2.2971169    -1.9279285
C           5.6503036     0.0643500    -1.0826957
H           6.3719430    -0.0986266    -1.8761141
C           1.0495380    -3.0852179     0.4877562
H           0.3811423    -3.8892738     0.2156720
C           2.0209271    -2.5191368    -0.2976358
H           2.2985200    -2.7150690    -1.3176858
N           2.6080517    -1.5175921     0.4446990
N           2.0570185    -1.4387984     1.6965462
C           1.1251664    -2.3758340     1.7129106
H           0.5373943    -2.5180262     2.6109291
18
443_C8H6ClN3_4-5-14-12 (180,) energy =    -932.8718555
C           5.7531053     1.1547767    -0.2294211
H           6.5378176     1.8956863    -0.3410678
C           4.8588475     1.1929849     0.8378856
H           4.9215641     1.9719564     1.5954545
N           3.8869196     0.3031107     1.0063538
C           3.7173331    -0.6951876     0.1377097
C           4.5782666    -0.8152070    -0.9778590
Cl          4.4967894    -2.0672048    -2.2173383
C           5.5961312     0.1236808    -1.1468629
H           6.2549564     0.0292846    -2.0034814
C           1.0933705    -3.1489533     0.5390673
H           0.4822704    -4.0129046     0.3209470
C           2.1573120    -2.6877391    -0.1917595
H           2.5938858    -3.0651929    -1.0970474
N           2.6377466    -1.5652536     0.4518391
N           1.9072588    -1.2954361     1.5802957
C           0.9892902    -2.2437571     1.6247478
H           0.2768270    -2.2479060     2.4399822
