16
256_C6H7NO2_4-0-2-12 (-165,) energy =    -438.0326840
N           1.0613815    -0.8809779    -0.2854811
H           0.8911267     0.0215454     0.1336258
C           2.3603228    -1.2510428    -0.5305534
O           2.6756533    -2.3151842    -1.0488476
C          -0.0327370    -1.8328723    -0.3486915
H          -0.4005233    -2.0938349     0.6523663
H           0.3470300    -2.7324696    -0.8347228
H          -0.8652042    -1.4329633    -0.9380733
C           4.6861887     1.3301667     0.7993295
H           5.0528355     2.1686773     1.3745867
C           3.3584678     0.8052095     0.7781948
H           2.5172601     1.1613937     1.3576596
C           3.3708021    -0.2590774    -0.0873143
O           4.6275308    -0.4189658    -0.5963501
C           5.4070995     0.5468813    -0.0538537
H           6.4395012     0.5465173    -0.3694788
16
256_C6H7NO2_4-0-2-12 (-150,) energy =    -438.0306698
N           1.0519521    -0.8211796    -0.4636482
H           0.8954486     0.0673831    -0.0067833
C           2.3686754    -1.1933926    -0.6388836
O           2.7045463    -2.2629020    -1.1299769
C           0.0183975    -1.8311895    -0.2832994
H          -0.1231025    -2.0902525     0.7752517
H           0.3295002    -2.7240678    -0.8267535
H          -0.9326593    -1.4777327    -0.6931273
C           4.6343841     1.3500577     0.8544079
H           4.9738958     2.1769666     1.4621340
C           3.3057005     0.8396074     0.7458281
H           2.4349817     1.1987705     1.2778591
C           3.3596204    -0.2146805    -0.1310517
O           4.6438710    -0.3797282    -0.5664773
C           5.3978392     0.5700353     0.0355383
H           6.4478104     0.5627876    -0.2156968
16
256_C6H7NO2_4-0-2-12 (-135,) energy =    -438.0269510
N           1.0393849    -0.7448392    -0.6067031
H           0.8916135     0.1655186    -0.1873611
C           2.3727225    -1.1030355    -0.7483943
O           2.7272239    -2.1654186    -1.2384266
C           0.0712534    -1.7543363    -0.1845994
H           0.0822144    -1.9089189     0.9037621
H           0.3259202    -2.6937419    -0.6771707
H          -0.9357314    -1.4579720    -0.4924879
C           4.5689360     1.3642221     0.9555124
H           4.8802875     2.1595167     1.6180044
C           3.2467592     0.8651006     0.7581901
H           2.3510412     1.2021651     1.2621597
C           3.3411251    -0.1474464    -0.1642279
O           4.6458049    -0.2964598    -0.5439864
C           5.3702325     0.6203991     0.1384895
H           6.4314567     0.6211848    -0.0604718
16
256_C6H7NO2_4-0-2-12 (-120,) energy =    -438.0218795
N           0.9939882    -0.7331130    -0.7490370
H           0.8673797     0.2018420    -0.3746726
C           2.3429142    -1.0745514    -0.8924255
O           2.7030514    -2.1147723    -1.4200321
C           0.1120862    -1.7028998    -0.0929451
H           0.2807380    -1.7563506     0.9925785
H           0.2986473    -2.6865444    -0.5273484
H          -0.9315498    -1.4338176    -0.2789782
C           4.4988334     1.2864271     0.9984213
H           4.7915290     2.0519828     1.7030741
C           3.1797899     0.8219710     0.7181788
H           2.2657088     1.1613516     1.1860941
C           3.3009504    -0.1611936    -0.2336282
O           4.6210193    -0.3226311    -0.5538653
C           5.3262730     0.5546723     0.1958625
H           6.3962336     0.5407410     0.0510960
16
256_C6H7NO2_4-0-2-12 (-105,) energy =    -438.0162208
N           0.9577010    -0.7578870    -0.8857211
H           0.8349155     0.2040055    -0.5790063
C           2.3272094    -1.0611140    -1.0474698
O           2.7029867    -2.0598032    -1.6357857
C           0.1991977    -1.6601754    -0.0071199
H           0.5202064    -1.6045151     1.0441249
H           0.3318575    -2.6851235    -0.3601065
H          -0.8638393    -1.4108824    -0.0686022
C           4.4220255     1.2153240     1.0044103
H           4.6903453     1.9568301     1.7436143
C           3.1133683     0.7717423     0.6541356
H           2.1818592     1.1062922     1.0897959
C           3.2672185    -0.1840499    -0.3216785
O           4.5994406    -0.3461777    -0.5910835
C           5.2776764     0.5011383     0.2148802
H           6.3528757     0.4825895     0.1161601
16
256_C6H7NO2_4-0-2-12 (-90,) energy =    -438.0183581
N           0.8488234    -0.5116710    -0.7547144
H           0.2818973    -0.5827794    -1.6011581
C           2.1749905    -0.8138610    -1.1880744
O           2.4165619    -1.4067887    -2.2262301
C           0.2915213    -1.4687057     0.2240364
H          -0.7184721    -1.1489681     0.4957146
H           0.9049348    -1.4619499     1.1297752
H           0.2503327    -2.4976410    -0.1609093
C           4.5102913     0.9711035     1.0519827
H           4.8637856     1.6534300     1.8121953
C           3.1639949     0.7446044     0.6449052
H           2.2685129     1.2234914     1.0127870
C           3.2104401    -0.1952478    -0.3552685
O           4.5109324    -0.5619520    -0.5837387
C           5.2772948     0.1514356     0.2716694
H           6.3405534    -0.0267593     0.2079922
16
256_C6H7NO2_4-0-2-12 (-75,) energy =    -438.0222215
N           0.8287124    -0.5856335    -0.8461919
H           0.2423707    -0.7574095    -1.6624654
C           2.1568970    -0.7819381    -1.2819514
O           2.4299077    -1.2439797    -2.3788181
C           0.3415376    -1.4070331     0.2765054
H          -0.6566587    -1.0636959     0.5632580
H           1.0039847    -1.2836928     1.1365933
H           0.2910798    -2.4766368     0.0280333
C           4.4592956     0.9113018     1.0731882
H           4.8038277     1.5687604     1.8590364
C           3.1167510     0.6998215     0.6421059
H           2.2205243     1.1731869     1.0163062
C           3.1737476    -0.2072039    -0.3861332
O           4.4756073    -0.5660419    -0.6115253
C           5.2342976     0.1165049     0.2768908
H           6.2973769    -0.0646358     0.2212527
16
256_C6H7NO2_4-0-2-12 (-60,) energy =    -438.0250757
N           0.8661524    -0.6881493    -0.9221213
H           0.2906423    -0.9367196    -1.7237652
C           2.1984034    -0.7477242    -1.3399148
O           2.5120109    -1.0904005    -2.4710606
C           0.4109777    -1.3633524     0.2997370
H          -0.5709534    -0.9745909     0.5862155
H           1.1087489    -1.1627350     1.1140389
H           0.3347817    -2.4522966     0.1713844
C           4.4418451     0.8890233     1.1205266
H           4.7681795     1.5271059     1.9297723
C           3.1061664     0.6758955     0.6660822
H           2.2032897     1.1347943     1.0430872
C           3.1853195    -0.2010974    -0.3858013
O           4.4930295    -0.5380541    -0.6050451
C           5.2346891     0.1247434     0.3135514
H           6.2994827    -0.0482441     0.2679697
16
256_C6H7NO2_4-0-2-12 (-45,) energy =    -438.0265759
N           0.8707133    -0.8143847    -0.9830418
H           0.2983242    -1.1006608    -1.7713839
C           2.1932366    -0.7425315    -1.3903885
O           2.5283552    -0.9910231    -2.5414226
C           0.4071577    -1.3240321     0.3067713
H          -0.4738482    -0.7675896     0.6452186
H           1.1941690    -1.2091659     1.0522451
H           0.1452565    -2.3890640     0.2485221
C           4.4070507     0.8598614     1.1280430
H           4.7247136     1.4802892     1.9542852
C           3.0723496     0.6316769     0.6755709
H           2.1652977     1.0631297     1.0746293
C           3.1615456    -0.2130411    -0.4015487
O           4.4746636    -0.5131431    -0.6391949
C           5.2095960     0.1369571     0.2941725
H           6.2770158    -0.0151811     0.2380466
16
256_C6H7NO2_4-0-2-12 (-30,) energy =    -438.0273936
N           0.9298277    -0.9735825    -1.0118427
H           0.3715282    -1.3149096    -1.7849879
C           2.2398031    -0.8000477    -1.4035262
O           2.6004353    -1.0306849    -2.5519059
C           0.4254844    -1.2554003     0.3268624
H          -0.1179298    -0.4020138     0.7538301
H           1.2476814    -1.5119291     0.9984561
H          -0.2606140    -2.1076039     0.2874461
C           4.3683770     0.8412327     1.1682785
H           4.6548151     1.4331104     2.0262683
C           3.0457358     0.5326275     0.7287976
H           2.1204398     0.8636223     1.1778602
C           3.1746144    -0.2355706    -0.4010955
O           4.5021052    -0.4130884    -0.6806611
C           5.2050781     0.2373299     0.2756049
H           6.2795557     0.1758782     0.1893372
16
256_C6H7NO2_4-0-2-12 (-15,) energy =    -438.0277257
N           1.2778343    -1.8536467    -0.1242087
H           0.8896877    -2.7811715    -0.2371273
C           2.6512607    -1.8827620    -0.1061647
O           3.2647005    -2.9404528    -0.2004880
C           0.3689617    -0.7769456     0.2308415
H          -0.5407240    -1.2090541     0.6574893
H           0.0779095    -0.1655035    -0.6346384
H           0.8187597    -0.1230764     0.9827360
C           4.2924689     1.4607479    -0.0635681
H           4.4472326     2.5226711    -0.1935864
C           3.0914181     0.7243616    -0.2937623
H           2.1547558     1.1207736    -0.6565332
C           3.3693895    -0.5883050    -0.0019319
O           4.6760230    -0.6960617     0.3908794
C           5.2132270     0.5449689     0.3538245
H           6.2480255     0.6155326     0.6537246
16
256_C6H7NO2_4-0-2-12 (0,) energy =    -438.0275262
N           1.2323235    -1.9421179     0.0791287
H           0.8589830    -2.8696832     0.2331338
C           2.6008300    -1.9241706     0.1884098
O           3.2325728    -2.9624773     0.3547142
C           0.2944218    -0.8561482    -0.1342232
H          -0.6485221    -1.2788548    -0.4909176
H           0.6653896    -0.1689220    -0.9000161
H           0.0842294    -0.2834791     0.7804445
C           4.1918617     1.4468388     0.0925986
H           4.3219541     2.5173149     0.1680305
C           2.9836043     0.7063645     0.2641448
H           2.0176562     1.1135310     0.5206582
C           3.2995292    -0.6181542     0.0807125
O           4.6373649    -0.7264228    -0.1898832
C           5.1553492     0.5225709    -0.1854749
H           6.2113801     0.5916274    -0.3994747
16
256_C6H7NO2_4-0-2-12 (15,) energy =    -438.0277254
N           1.2210525    -1.9109534     0.2141560
H           0.8445684    -2.8413124     0.3422091
C           2.5947951    -1.9196223     0.2183763
O           3.2225977    -2.9651857     0.3472791
C           0.3026327    -0.8564609    -0.1805893
H          -0.5949338    -1.3119939    -0.6085225
H           0.7537287    -0.2153645    -0.9427149
H          -0.0089922    -0.2276276     0.6650114
C           4.1873713     1.4464204     0.1240420
H           4.3247606     2.5131277     0.2326242
C           2.9937621     0.6975529     0.3527373
H           2.0457156     1.0882325     0.6913293
C           3.2950268    -0.6170265     0.0948541
O           4.6092800    -0.7139901    -0.2750177
C           5.1277531     0.5353313    -0.2584362
H           6.1659101     0.6147621    -0.5442302
16
256_C6H7NO2_4-0-2-12 (30,) energy =    -438.0273936
N           1.2091889    -1.8578254     0.3377306
H           0.8325649    -2.7883926     0.4724712
C           2.5829929    -1.9042172     0.2373486
O           3.1959959    -2.9616686     0.3270638
C           0.3029354    -0.8670427    -0.2305731
H          -0.5041316    -1.3751961    -0.7681221
H           0.8328784    -0.2269742    -0.9393224
H          -0.1513603    -0.2298989     0.5398372
C           4.1940795     1.4479103     0.1570493
H           4.3433726     2.5094387     0.2962669
C           3.0138593     0.6935973     0.4324622
H           2.0881443     1.0674424     0.8455952
C           3.2941116    -0.6100358     0.1078147
O           4.5808853    -0.6978736    -0.3486926
C           5.1051913     0.5494131    -0.3164603
H           6.1243006     0.6373456    -0.6620097
16
256_C6H7NO2_4-0-2-12 (45,) energy =    -438.0265759
N           1.1783294    -1.7769203     0.4866277
H           0.8040467    -2.7008653     0.6797712
C           2.5474380    -1.8770128     0.2977233
O           3.1335990    -2.9487186     0.3801487
C           0.2773105    -0.9165401    -0.2789786
H          -0.1703681    -1.4541221    -1.1256589
H           0.8297095    -0.0635560    -0.6734220
H          -0.5296043    -0.5407411     0.3597777
C           4.2454513     1.4264845     0.1761136
H           4.4387851     2.4769456     0.3424565
C           3.0740605     0.6915853     0.5310681
H           2.2000832     1.0653984     1.0454312
C           3.2866046    -0.6034684     0.1318793
O           4.5230011    -0.7069366    -0.4438235
C           5.0836341     0.5254173    -0.4134089
H           6.0690713     0.6016426    -0.8479020
16
256_C6H7NO2_4-0-2-12 (60,) energy =    -438.0250757
N           1.1828540    -1.6712377     0.5787062
H           0.8171102    -2.5920765     0.8109120
C           2.5370588    -1.8331321     0.2738902
O           3.0781531    -2.9297093     0.2721774
C           0.2748011    -0.9383624    -0.3125594
H           0.0160186    -1.5155502    -1.2114284
H           0.7417995    -0.0043220    -0.6283133
H          -0.6465640    -0.6960264     0.2257285
C           4.2861673     1.4379562     0.1942298
H           4.4960213     2.4820439     0.3796055
C           3.1175013     0.7073293     0.5635331
H           2.2592550     1.0734903     1.1087367
C           3.3069290    -0.5802589     0.1298576
O           4.5255328    -0.6834353    -0.4833899
C           5.0992219     0.5421456    -0.4385420
H           6.0749620     0.6187322    -0.8944515
16
256_C6H7NO2_4-0-2-12 (75,) energy =    -438.0222215
N           1.1474719    -1.5677458     0.6543014
H           0.7914244    -2.4719127     0.9630383
C           2.4748601    -1.8027935     0.2356251
O           2.9437880    -2.9251464     0.1280876
C           0.2072460    -0.9894333    -0.3224357
H           0.0102570    -1.6614335    -1.1697535
H           0.6124319    -0.0526000    -0.7122663
H          -0.7387622    -0.7684573     0.1802982
C           4.3203813     1.4079274     0.2253704
H           4.5578383     2.4423184     0.4307012
C           3.1390610     0.6976420     0.5900055
H           2.2908049     1.0684403     1.1470450
C           3.2949188    -0.5851244     0.1280119
O           4.5052730    -0.7038552    -0.5007573
C           5.1074495     0.5059146    -0.4328974
H           6.0827307     0.5698479    -0.8920097
16
256_C6H7NO2_4-0-2-12 (90,) energy =    -438.0183581
N           1.1558384    -1.4519397     0.6818988
H           0.8471080    -2.3381228     1.0847557
C           2.4589446    -1.7288571     0.1689956
O           2.8550789    -2.8582786    -0.0658919
C           0.1624167    -1.0706131    -0.3438485
H           0.0207463    -1.8461612    -1.1100352
H           0.4849053    -0.1497387    -0.8384960
H          -0.7952657    -0.8749319     0.1467442
C           4.3864117     1.4226702     0.2706364
H           4.6445632     2.4459937     0.5043414
C           3.1917591     0.7269790     0.6146527
H           2.3471056     1.0945394     1.1785836
C           3.3231185    -0.5461114     0.1168449
O           4.5314417    -0.6710779    -0.5174180
C           5.1563964     0.5232699    -0.4129146
H           6.1347058     0.5812659    -0.8666487
16
256_C6H7NO2_4-0-2-12 (105,) energy =    -438.0162208
N           1.2441835    -1.6512371     0.4766972
H           1.2402953    -1.0022916     1.2597946
C           2.5115269    -1.6781845    -0.1452191
O           2.8240825    -2.5491311    -0.9379760
C           0.1014271    -1.3724867    -0.4052269
H          -0.8269854    -1.5129994     0.1553808
H           0.1146434    -2.0870196    -1.2310504
H           0.1189348    -0.3532150    -0.8200023
C           4.3670442     1.4652390     0.5304572
H           4.5633437     2.4791081     0.8494952
C           3.1472363     0.7374574     0.6506291
H           2.2201703     1.0996847     1.0734444
C           3.3692346    -0.5014166     0.0980610
O           4.6607615    -0.5729951    -0.3497280
C           5.2443876     0.6167972    -0.0827098
H           6.2764690     0.7114258    -0.3860184
16
256_C6H7NO2_4-0-2-12 (120,) energy =    -438.0218795
N           1.2449465    -1.5124500     0.4399553
H           1.2129545    -0.8148272     1.1765816
C           2.4800084    -1.5423782    -0.2161571
O           2.7523755    -2.3789662    -1.0623615
C           0.0350603    -1.4822497    -0.3870621
H          -0.8361634    -1.7224557     0.2289415
H           0.1301266    -2.2429772    -1.1638015
H          -0.1222889    -0.5043380    -0.8651754
C           4.4553539     1.5028234     0.5727110
H           4.6891499     2.5000446     0.9179229
C           3.2018761     0.8271841     0.6529406
H           2.2831106     1.2233249     1.0635620
C           3.3808433    -0.4073103     0.0774201
O           4.6753683    -0.5261738    -0.3483430
C           5.3062808     0.6305023    -0.0430811
H           6.3473095     0.6849548    -0.3246153
16
256_C6H7NO2_4-0-2-12 (135,) energy =    -438.0269510
N           1.2451577    -1.3820088     0.3661494
H           1.1756638    -0.6580311     1.0714629
C           2.4616896    -1.4200963    -0.3007452
O           2.7136909    -2.2333115    -1.1780381
C           0.0119123    -1.5925809    -0.3883952
H          -0.7851679    -1.9239207     0.2835578
H           0.1962283    -2.3749894    -1.1258424
H          -0.3148134    -0.6817676    -0.9101389
C           4.5490003     1.5090131     0.6359223
H           4.8181915     2.4841246     1.0167410
C           3.2622295     0.8925916     0.6572476
H           2.3500708     1.3231951     1.0477050
C           3.4018631    -0.3324803     0.0533310
O           4.7011990    -0.5021246    -0.3359600
C           5.3770109     0.6141827     0.0222824
H           6.4280686     0.6247607    -0.2245919
16
256_C6H7NO2_4-0-2-12 (150,) energy =    -438.0306695
N           1.2030527    -1.2822532     0.2434071
H           1.1095374    -0.5392186     0.9230247
C           2.4103507    -1.3596927    -0.4189654
O           2.6438213    -2.1798919    -1.2969043
C          -0.0254301    -1.7203168    -0.4041023
H          -0.7233130    -2.1219065     0.3370376
H           0.2354458    -2.5096282    -1.1100582
H          -0.5161088    -0.9024770    -0.9500024
C           4.6355080     1.4262220     0.6384182
H           4.9520059     2.3714118     1.0565310
C           3.3152453     0.8839629     0.6173848
H           2.4216688     1.3552452     1.0041777
C           3.3970259    -0.3261934    -0.0246376
O           4.6909028    -0.5577304    -0.3970204
C           5.4230156     0.5055203     0.0106308
H           6.4775111     0.4626081    -0.2170086
16
256_C6H7NO2_4-0-2-12 (165,) energy =    -438.0326914
N           1.1002673    -1.0805716     0.1031392
H           0.9298818    -0.1556776     0.4738310
C           2.3576094    -1.3246057    -0.4030003
O           2.6253126    -2.2945416    -1.1002121
C          -0.0538180    -1.7899970    -0.4274422
H          -0.8213345    -1.8846807     0.3466095
H           0.2752173    -2.7835971    -0.7329995
H          -0.4868334    -1.2829844    -1.3007902
C           4.7145612     1.3334852     0.7050657
H           5.1009659     2.1982425     1.2259635
C           3.4040000     0.7762202     0.8003931
H           2.5994549     1.1331125     1.4294168
C           3.3769116    -0.3108305    -0.0366599
O           4.5954529    -0.4548121    -0.6358637
C           5.3881141     0.5443600    -0.1812854
H           6.3920496     0.5619608    -0.5778725
16
256_C6H7NO2_4-0-2-12 (180,) energy =    -438.0333727
N           1.0593031    -0.9479144    -0.0762566
H           0.8813762     0.0006945     0.2201385
C           2.3348987    -1.2825439    -0.4570129
O           2.6173454    -2.3202136    -1.0432020
C          -0.0751413    -1.8012882    -0.3785451
H          -0.7493109    -1.8583800     0.4826830
H           0.3114894    -2.7958199    -0.6040535
H          -0.6406335    -1.4424643    -1.2487980
C           4.7172028     1.3010350     0.7626803
H           5.1143422     2.1302653     1.3311429
C           3.4024220     0.7484464     0.8347028
H           2.6041277     1.0652218     1.4922632
C           3.3638393    -0.2895906    -0.0609202
O           4.5772577    -0.4091194    -0.6752341
C           5.3803391     0.5577734    -0.1696139
H           6.3828292     0.5891697    -0.5689973
