21
105_C9H9N3_16-0-9-10 (-165,) energy =    -512.6254034
C           3.0588415    -1.8249619    -0.9525133
H           3.6119367    -2.4399526    -1.6719337
H           2.7346448    -2.5051400    -0.1559275
C           5.8863039     0.8398727     0.8119440
H           6.6538051     1.4584530     1.2674380
C           4.6129281     1.3377512     0.5421021
H           4.3546411     2.3645847     0.7879241
C           3.6687183     0.4967519    -0.0448362
H           2.6610564     0.8424104    -0.2499338
C           4.0344197    -0.8196857    -0.3479460
N           5.2571231    -1.3083089    -0.0828245
C           6.1511112    -0.4897623     0.4820476
H           7.1311757    -0.9218031     0.6804667
C          -0.1433626    -0.4489465    -1.9148134
H          -1.1612715    -0.1680589    -1.6802300
N           0.6771820    -1.0199867    -0.9664493
C           1.8271294    -1.2448749    -1.5749656
N           1.7741470    -0.8333512    -2.8824899
H           2.5237778    -0.8954154    -3.5564946
C           0.5127132    -0.3224319    -3.1126749
H           0.2134573     0.0585260    -4.0775114
21
105_C9H9N3_16-0-9-10 (-150,) energy =    -512.6263178
C           3.0034162    -1.8274967    -0.8618869
H           3.5494835    -2.5122536    -1.5192511
H           2.6216289    -2.4309702    -0.0290274
C           5.8936535     0.8614040     0.7543863
H           6.6775350     1.4921310     1.1629949
C           4.5657570     1.2857687     0.7086663
H           4.2824536     2.2641276     1.0882207
C           3.6032898     0.4342740     0.1713491
H           2.5567096     0.7180146     0.1278778
C           4.0048085    -0.8190249    -0.3078621
N           5.2795469    -1.2370075    -0.2615291
C           6.1923579    -0.4071896     0.2588641
H           7.2157874    -0.7795804     0.2775212
C          -0.0903286    -0.3461803    -2.0088184
H          -1.0913127     0.0184338    -1.8214978
N           0.6766731    -0.8832586    -0.9973398
C           1.8189152    -1.2331920    -1.5601750
N           1.8128151    -0.9361351    -2.8984619
H           2.5686956    -1.1034695    -3.5471179
C           0.5908485    -0.3684170    -3.1988080
H           0.3317033    -0.0564091    -4.1993249
21
105_C9H9N3_16-0-9-10 (-135,) energy =    -512.6269573
C           2.9324466    -1.8423752    -0.7601515
H           3.4655840    -2.5936616    -1.3515484
H           2.4883699    -2.3603681     0.0982115
C           5.8900736     0.8760889     0.6710947
H           6.6896057     1.5218367     1.0218594
C           4.5477753     1.2211301     0.8379910
H           4.2710297     2.1506674     1.3287194
C           3.5664738     0.3542608     0.3663946
H           2.5095166     0.5797145     0.4707776
C           3.9620443    -0.8360758    -0.2591232
N           5.2494216    -1.1747530    -0.4237790
C           6.1823397    -0.3289439     0.0354825
H           7.2161824    -0.6357034    -0.1171381
C          -0.0391138    -0.2860352    -2.1119225
H          -1.0316530     0.1253612    -1.9869308
N           0.6542858    -0.8182871    -1.0460782
C           1.8061769    -1.2340913    -1.5400446
N           1.8781985    -0.9847031    -2.8854822
H           2.6584992    -1.2036033    -3.4882956
C           0.6972802    -0.3782372    -3.2650300
H           0.5004742    -0.0913506    -4.2870313
21
105_C9H9N3_16-0-9-10 (-120,) energy =    -512.6272782
C           2.8383839    -1.8594118    -0.6240550
H           3.3450883    -2.6853651    -1.1338059
H           2.3323308    -2.2682304     0.2569685
C           5.8808386     0.8833422     0.5568023
H           6.6984742     1.5426064     0.8325417
C           4.5643840     1.1596505     0.9320484
H           4.3271588     2.0475104     1.5123640
C           3.5589615     0.2775174     0.5500385
H           2.5191852     0.4558789     0.8083088
C           3.9032944    -0.8598414    -0.1942503
N           5.1641643    -1.1286699    -0.5635460
C           6.1221932    -0.2679144    -0.1893495
H           7.1336566    -0.5180745    -0.5062810
C          -0.0259361    -0.3265058    -2.2122978
H          -1.0344483     0.0625156    -2.1722442
N           0.5753634    -0.8731838    -1.0984751
C           1.7763615    -1.2534836    -1.4925613
N           1.9706472    -0.9684213    -2.8185230
H           2.8129420    -1.1496066    -3.3458987
C           0.8182983    -0.3729096    -3.2919683
H           0.7132402    -0.0601903    -4.3199527
21
105_C9H9N3_16-0-9-10 (-105,) energy =    -512.6277500
C           2.7309388    -1.8237592    -0.5050436
H           3.2009340    -2.7194419    -0.9255473
H           2.1699998    -2.1184322     0.3868189
C           5.8830348     0.8859445     0.4367319
H           6.7248627     1.5410408     0.6397376
C           4.6320081     1.1073403     1.0159645
H           4.4717193     1.9470811     1.6870493
C           3.5919049     0.2317560     0.7208366
H           2.6003691     0.3717784     1.1415856
C           3.8358628    -0.8444336    -0.1437120
N           5.0343971    -1.0593919    -0.7082045
C           6.0264537    -0.2052179    -0.4173365
H           6.9841649    -0.4114754    -0.8930197
C          -0.0266910    -0.4189839    -2.3793329
H          -1.0595969    -0.1070500    -2.4557542
N           0.4712298    -0.9666360    -1.2154245
C           1.7378516    -1.2372773    -1.4657132
N           2.0749612    -0.8825257    -2.7451797
H           2.9947964    -0.9681786    -3.1546996
C           0.9480018    -0.3538157    -3.3421143
H           0.9494117    -0.0000659    -4.3621675
21
105_C9H9N3_16-0-9-10 (-90,) energy =    -512.6288352
C           2.6446349    -1.7738450    -0.3871993
H           3.0839810    -2.7218805    -0.7186960
H           2.0443391    -1.9684564     0.5055162
C           5.8831861     0.8926616     0.3624065
H           6.7435163     1.5393422     0.5055127
C           4.7283106     1.0362151     1.1321075
H           4.6633992     1.8054752     1.8970620
C           3.6586970     0.1738812     0.9063333
H           2.7410220     0.2563799     1.4812149
C           3.7775801    -0.8102355    -0.0829706
N           4.8864557    -0.9505830    -0.8294712
C           5.9060481    -0.1105063    -0.6048962
H           6.7863945    -0.2544967    -1.2295624
C           0.0053303    -0.5182637    -2.5208955
H          -1.0304963    -0.2634464    -2.7004750
N           0.4156636    -1.0300261    -1.3072501
C           1.7132655    -1.2291832    -1.4323030
N           2.1550627    -0.8653485    -2.6757364
H           3.1189505    -0.9008498    -2.9794518
C           1.0649567    -0.4035782    -3.3849754
H           1.1468692    -0.0517098    -4.4023842
21
105_C9H9N3_16-0-9-10 (-75,) energy =    -512.6302634
C           2.5512239    -1.6769397    -0.3120055
H           2.9536926    -2.6702620    -0.5491306
H           1.9167152    -1.7744861     0.5723684
C           5.8913296     0.8923006     0.3301774
H           6.7729052     1.5166364     0.4381924
C           4.8472365     0.9398310     1.2528781
H           4.8916468     1.6101230     2.1071526
C           3.7432375     0.1109038     1.0635287
H           2.9106480     0.1210512     1.7605001
C           3.7169988    -0.7432073    -0.0443050
N           4.7219220    -0.7898293    -0.9383849
C           5.7744548     0.0151680    -0.7475597
H           6.5652528    -0.0505277    -1.4932521
C           0.0269961    -0.5824125    -2.6611312
H          -1.0009203    -0.3641704    -2.9180096
N           0.3704373    -1.0223801    -1.3993968
C           1.6782493    -1.1894776    -1.4341723
N           2.1900541    -0.8784769    -2.6632548
H           3.1778828    -0.8924245    -2.8837069
C           1.1375074    -0.4803825    -3.4612796
H           1.2759204    -0.1740329    -4.4872850
21
105_C9H9N3_16-0-9-10 (-60,) energy =    -512.6312038
C           2.4602868    -1.5381086    -0.2598508
H           2.8151086    -2.5719380    -0.3837006
H           1.7951551    -1.5281692     0.6070069
C           5.9300740     0.8719958     0.3332715
H           6.8384977     1.4590194     0.4262616
C           4.9883194     0.8178923     1.3591755
H           5.1416221     1.3690685     2.2831294
C           3.8423117     0.0448613     1.1811907
H           3.0869246    -0.0190425     1.9585356
C           3.6705288    -0.6541826    -0.0184443
N           4.5780946    -0.5996292    -1.0117363
C           5.6725119     0.1488269    -0.8308771
H           6.3791114     0.1672922    -1.6590180
C           0.0286678    -0.6749708    -2.7904398
H          -0.9930110    -0.5143779    -3.1078507
N           0.3268175    -1.0231598    -1.4897001
C           1.6413318    -1.1365284    -1.4545360
N           2.1993753    -0.8843062    -2.6752807
H           3.2003354    -0.8544281    -2.8299860
C           1.1728300    -0.5760802    -3.5428062
H           1.3495024    -0.3244699    -4.5778164
21
105_C9H9N3_16-0-9-10 (-45,) energy =    -512.6311861
C           2.3663754    -1.3737297    -0.2178236
H           2.6568774    -2.4369493    -0.2133383
H           1.6786193    -1.2420326     0.6213781
C           5.9750057     0.8380770     0.3484600
H           6.9114191     1.3800464     0.4365543
C           5.1184932     0.6786791     1.4368355
H           5.3690561     1.0994700     2.4069401
C           3.9298608    -0.0255315     1.2600667
H           3.2380210    -0.1643036     2.0854708
C           3.6281566    -0.5565155    -0.0001803
N           4.4543049    -0.3989907    -1.0507074
C           5.5922581     0.2829373    -0.8709960
H           6.2277562     0.3876478    -1.7486599
C           0.0155699    -0.7976817    -2.8953571
H          -0.9998477    -0.7166358    -3.2598237
N           0.2795910    -1.0429364    -1.5648970
C           1.5969315    -1.0771718    -1.4741671
N           2.1880183    -0.8756629    -2.6877576
H           3.1920283    -0.7797405    -2.7932318
C           1.1823049    -0.6819608    -3.6102182
H           1.3868724    -0.4849101    -4.6519349
21
105_C9H9N3_16-0-9-10 (-30,) energy =    -512.6304364
C           2.2806423    -1.2098099    -0.2064308
H           2.4926959    -2.2832214    -0.0657424
H           1.5821667    -0.9449078     0.5926286
C           6.0114650     0.8046901     0.3318721
H           6.9711081     1.3047647     0.4171676
C           5.2246431     0.5371103     1.4525922
H           5.5555968     0.8279286     2.4459770
C           4.0018224    -0.1028729     1.2774361
H           3.3623258    -0.3200951     2.1280908
C           3.5926902    -0.4671473    -0.0136369
N           4.3519658    -0.2057051    -1.0914113
C           5.5265429     0.4144387    -0.9130736
H           6.1036990     0.6061362    -1.8158075
C           0.0058736    -0.9478423    -2.9907252
H          -0.9995301    -0.9661296    -3.3900101
N           0.2417704    -1.1020803    -1.6423901
C           1.5548332    -1.0277836    -1.5095745
N           2.1698067    -0.8454294    -2.7136218
H           3.1660027    -0.6670469    -2.7864069
C           1.1847991    -0.7789711    -3.6748096
H           1.4096984    -0.6171950    -4.7184000
21
105_C9H9N3_16-0-9-10 (-15,) energy =    -512.6294632
C           2.1851258    -1.0446949    -0.2139724
H           2.2951650    -2.1023500     0.0767362
H           1.4885357    -0.6248386     0.5200566
C           6.0305950     0.7529432     0.3048233
H           7.0125607     1.2074394     0.3907004
C           5.2895753     0.3940139     1.4326012
H           5.6812024     0.5643297     2.4318510
C           4.0365438    -0.1808108     1.2568866
H           3.4324720    -0.4671668     2.1133370
C           3.5467450    -0.3904406    -0.0423959
N           4.2626141    -0.0434142    -1.1238837
C           5.4703320     0.5125582    -0.9448740
H           6.0092238     0.7762008    -1.8529422
C           0.0138487    -1.1228757    -3.0873248
H          -0.9693122    -1.2599998    -3.5177654
N           0.2152961    -1.2046541    -1.7278849
C           1.5087332    -0.9895169    -1.5555514
N           2.1436238    -0.7836964    -2.7445678
H           3.1222295    -0.5176446    -2.7893782
C           1.1931863    -0.8559609    -3.7390887
H           1.4384493    -0.7086760    -4.7801977
21
105_C9H9N3_16-0-9-10 (0,) energy =    -512.6289263
C           2.1204848    -0.8604847    -0.1763928
H           2.0920570    -1.8587972     0.2823391
H           1.4532714    -0.2523635     0.4504581
C           6.0866585     0.6653252     0.3120735
H           7.0953197     1.0576743     0.3944251
C           5.3653048     0.2607807     1.4377767
H           5.8010177     0.3301007     2.4308520
C           4.0782087    -0.2331055     1.2676424
H           3.4899466    -0.5563134     2.1221392
C           3.5315910    -0.3153402    -0.0241031
N           4.2292755     0.0748932    -1.1021806
C           5.4722760     0.5510115    -0.9293279
H           5.9935420     0.8531290    -1.8356369
C           0.0912671    -1.3603881    -3.1106070
H          -0.8363108    -1.6819199    -3.5655750
N           0.2794036    -1.4293160    -1.7490740
C           1.5005863    -0.9638681    -1.5438004
N           2.0991854    -0.6012075    -2.7130588
H           3.0415068    -0.2234343    -2.7373325
C           1.2056903    -0.8500767    -3.7311479
H           1.4416641    -0.6478701    -4.7651153
21
105_C9H9N3_16-0-9-10 (15,) energy =    -512.6294632
C           2.0396815    -0.6788229    -0.1755961
H           1.8696428    -1.5829032     0.4194035
H           1.4211724     0.0953625     0.3074751
C           6.1046489     0.5669604     0.2852611
H           7.1362425     0.8966838     0.3580346
C           5.4005281     0.1152603     1.4032972
H           5.8734351     0.0811814     2.3810893
C           4.0829382    -0.2972429     1.2446151
H           3.5087150    -0.6585767     2.0932106
C           3.4902257    -0.2481521    -0.0274999
N           4.1712119     0.1865732    -1.0997754
C           5.4431580     0.5810611    -0.9377064
H           5.9507175     0.9234715    -1.8375042
C           0.1975888    -1.5845240    -3.1358171
H          -0.6435474    -2.0787422    -3.6037102
N           0.3859444    -1.6334573    -1.7729255
C           1.4880117    -0.9372187    -1.5501046
N           2.0062508    -0.4380462    -2.7083213
H           2.8979138     0.0466510    -2.7301721
C           1.1928620    -0.8548223    -3.7390132
H           1.3975029    -0.6054991    -4.7694090
21
105_C9H9N3_16-0-9-10 (30,) energy =    -512.6304363
C           1.9773792    -0.4945700    -0.1697349
H           1.7024065    -1.3009798     0.5162889
H           1.4145045     0.3887774     0.1763547
C           6.1108691     0.5014746     0.2648667
H           7.1580870     0.7801025     0.3277965
C           5.4327537    -0.0434168     1.3557404
H           5.9423468    -0.2054788     2.3017635
C           4.0917705    -0.3845582     1.2110327
H           3.5363021    -0.8169353     2.0382386
C           3.4544863    -0.1691625    -0.0195529
N           4.1113645     0.3535114    -1.0692261
C           5.4038395     0.6755645    -0.9213553
H           5.8924867     1.0928635    -1.7999275
C           0.2952445    -1.7215887    -3.1125971
H          -0.4809148    -2.3180622    -3.5734629
N           0.4581260    -1.6950583    -1.7450764
C           1.4781449    -0.8814107    -1.5332696
N           1.9668089    -0.3771317    -2.7029371
H           2.8114566     0.1841912    -2.7343085
C           1.2238996    -0.9190703    -3.7290117
H           1.4250226    -0.6940666    -4.7657168
21
105_C9H9N3_16-0-9-10 (45,) energy =    -512.6311861
C           1.9167042    -0.3236725    -0.1594691
H           1.5614546    -1.0309955     0.5942505
H           1.4110911     0.6322891     0.0534833
C           6.0989892     0.4361140     0.2491484
H           7.1584067     0.6665624     0.3029468
C           5.4409810    -0.2212757     1.2876285
H           5.9786698    -0.5237709     2.1822432
C           4.0805655    -0.4906475     1.1583133
H           3.5385251    -1.0049599     1.9462627
C           3.4100668    -0.0928003    -0.0050391
N           4.0472593     0.5386543    -1.0081135
C           5.3556525     0.7891494    -0.8753678
H           5.8296442     1.2989371    -1.7123595
C           0.3906115    -1.8538451    -3.0500996
H          -0.3254795    -2.5343564    -3.4912277
N           0.5134580    -1.7340759    -1.6824334
C           1.4631729    -0.8347485    -1.4979495
N           1.9463839    -0.3654008    -2.6849776
H           2.7402046     0.2634716    -2.7375873
C           1.2736315    -1.0217399    -3.6932046
H           1.4822635    -0.8407688    -4.7370283
21
105_C9H9N3_16-0-9-10 (60,) energy =    -512.6312035
C           1.8707837    -0.1344883    -0.1644581
H           1.4522388    -0.7445437     0.6396399
H           1.4235516     0.8667156    -0.0780406
C           6.0873243     0.3836137     0.2243419
H           7.1570730     0.5617398     0.2730826
C           5.4338112    -0.3958027     1.1770453
H           5.9851170    -0.8489962     1.9965960
C           4.0579115    -0.5865247     1.0622461
H           3.5165649    -1.1896383     1.7848602
C           3.3733826     0.0090053    -0.0025620
N           4.0045503     0.7590510    -0.9258477
C           5.3261673     0.9319922    -0.8074564
H           5.7974835     1.5426334    -1.5758564
C           0.4919165    -1.9517969    -2.9676867
H          -0.1712748    -2.7016152    -3.3779601
N           0.5673007    -1.7294878    -1.6087114
C           1.4563779    -0.7646689    -1.4645385
N           1.9494475    -0.3528733    -2.6697894
H           2.6921868     0.3305764    -2.7591177
C           1.3437124    -1.1153968    -3.6459047
H           1.5713799    -0.9952309    -4.6944756
21
105_C9H9N3_16-0-9-10 (75,) energy =    -512.6302633
C           1.8449635     0.0338570    -0.1880595
H           1.3762059    -0.4822038     0.6534690
H           1.4515671     1.0582228    -0.2166259
C           6.0766314     0.3444550     0.2183050
H           7.1528062     0.4758581     0.2749365
C           5.4086967    -0.5595115     1.0431340
H           5.9550135    -1.1592239     1.7662755
C           4.0252666    -0.6809088     0.9278156
H           3.4710442    -1.3756428     1.5517302
C           3.3500832     0.1077434    -0.0099559
N           3.9920434     0.9793982    -0.8097576
C           5.3215706     1.0827903    -0.6924400
H           5.8042025     1.7967093    -1.3581338
C           0.5693874    -2.0403543    -2.8631035
H          -0.0557848    -2.8454659    -3.2252824
N           0.6111479    -1.7156928    -1.5229525
C           1.4559294    -0.7064539    -1.4367409
N           1.9582586    -0.3678379    -2.6624589
H           2.6552748     0.3513659    -2.8090299
C           1.3982286    -1.2221505    -3.5894877
H           1.6379339    -1.1688771    -4.6408690
21
105_C9H9N3_16-0-9-10 (90,) energy =    -512.6288350
C           3.4698217    -0.6241898    -2.2435005
H           3.7646835     0.0491789    -3.0526766
H           3.8289478    -1.6309320    -2.4867570
C           5.2142014     0.4440794     1.4949462
H           5.6586720     0.6502468     2.4638566
C           4.9567955     1.4651083     0.5794444
H           5.1961219     2.4979121     0.8185158
C           4.3899823     1.1387496    -0.6497301
H           4.1700343     1.9048451    -1.3874023
C           4.0995076    -0.2027102    -0.9280870
N           4.3423276    -1.1895632    -0.0484936
C           4.8832712    -0.8603640     1.1325137
H           5.0644196    -1.6863976     1.8186653
C          -0.1159951    -0.2132867    -2.5075891
H          -0.9908618     0.2184048    -2.9748848
N           1.1547721     0.0876274    -2.9527023
C           1.9692606    -0.6010518    -2.1773562
N           1.2754256    -1.3325305    -1.2514760
H           1.6981083    -1.9068531    -0.5345001
C          -0.0680757    -1.0884718    -1.4520279
H          -0.8336760    -1.5481188    -0.8452206
21
105_C9H9N3_16-0-9-10 (105,) energy =    -512.6277501
C           3.4840111    -0.7664935    -2.1720323
H           3.8382812    -0.1746034    -3.0211809
H           3.7887736    -1.8069383    -2.3287693
C           5.2703471     0.4948715     1.4862522
H           5.7363270     0.7546469     2.4319856
C           4.7955270     1.4770296     0.6147299
H           4.8815550     2.5309330     0.8659365
C           4.2108474     1.0833195    -0.5846983
H           3.8196251     1.8132591    -1.2874826
C           4.1221508    -0.2843442    -0.8794217
N           4.5713296    -1.2333593    -0.0434413
C           5.1292825    -0.8391240     1.1105705
H           5.4824944    -1.6364475     1.7629044
C          -0.0461364    -0.0515491    -2.5126929
H          -0.8645614     0.4825175    -2.9763514
N           1.2597065     0.1637242    -2.9012115
C           1.9882778    -0.6421257    -2.1529198
N           1.2019737    -1.3651986    -1.2953108
H           1.5368627    -2.0255698    -0.6076307
C          -0.1087408    -0.9926812    -1.5168996
H          -0.9306650    -1.4242736    -0.9656981
21
105_C9H9N3_16-0-9-10 (120,) energy =    -512.6272782
C           3.4628578    -0.9250342    -2.0699216
H           3.8802540    -0.4385209    -2.9579005
H           3.7056656    -1.9912166    -2.1256983
C           5.3442917     0.5623640     1.4546280
H           5.8465604     0.8829629     2.3624493
C           4.6664448     1.4698436     0.6377877
H           4.6259290     2.5251275     0.8948206
C           4.0424737     0.9998648    -0.5131923
H           3.4937449     1.6652825    -1.1733202
C           4.1198558    -0.3673103    -0.8148509
N           4.7635792    -1.2457225    -0.0322833
C           5.3585826    -0.7777469     1.0748480
H           5.8718951    -1.5188945     1.6858186
C           0.0195950     0.1014618    -2.4775847
H          -0.7287479     0.7530370    -2.9082487
N           1.3559422     0.2445816    -2.7851931
C           1.9803393    -0.7016612    -2.1090811
N           1.0946273    -1.4461134    -1.3752606
H           1.3308397    -2.2164166    -0.7659524
C          -0.1691759    -0.9394920    -1.6050027
H          -1.0503885    -1.3628101    -1.1469080
21
105_C9H9N3_16-0-9-10 (135,) energy =    -512.6269574
C           3.4417975    -1.0190625    -1.9696132
H           3.9211369    -0.6404288    -2.8802118
H           3.6209704    -2.0984247    -1.9339797
C           5.4414947     0.6396006     1.4122680
H           5.9863397     1.0050294     2.2776512
C           4.5820679     1.4678373     0.6883704
H           4.4397097     2.5062363     0.9762974
C           3.9092931     0.9430458    -0.4111008
H           3.2289888     1.5469374    -1.0038731
C           4.1200511    -0.3998535    -0.7529212
N           4.9437541    -1.2023315    -0.0624542
C           5.5837758    -0.6819019     0.9940190
H           6.2425397    -1.3627569     1.5313221
C           0.0864912     0.2168562    -2.5119814
H          -0.5991825     0.9341577    -2.9424838
N           1.4449631     0.3068765    -2.7278416
C           1.9786440    -0.7130760    -2.0808415
N           1.0107938    -1.4530858    -1.4537529
H           1.1658595    -2.2771861    -0.8907407
C          -0.2093761    -0.8666813    -1.7253358
H          -1.1380515    -1.2720435    -1.3528293
21
105_C9H9N3_16-0-9-10 (150,) energy =    -512.6263179
C           3.4121746    -1.1014035    -1.8808582
H           3.9419836    -0.8188478    -2.7990439
H           3.5320433    -2.1844194    -1.7717006
C           5.5060034     0.6827704     1.3792800
H           6.0855905     1.0818548     2.2063579
C           4.4823525     1.4195387     0.7836325
H           4.2424317     2.4201100     1.1340671
C           3.7713167     0.8551459    -0.2727691
H           2.9760151     1.3973032    -0.7740557
C           4.1082899    -0.4361317    -0.6978173
N           5.0961398    -1.1488470    -0.1338978
C           5.7706751    -0.5917569     0.8796513
H           6.5630037    -1.2004951     1.3133389
C           0.1448891     0.2630687    -2.6184593
H          -0.4877816     0.9930758    -3.1051015
N           1.5144172     0.2869555    -2.7722414
C           1.9727604    -0.7302158    -2.0656651
N           0.9441962    -1.4048343    -1.4604951
H           1.0350240    -2.2156874    -0.8651969
C          -0.2348187    -0.7776845    -1.8102340
H          -1.1967814    -1.1293127    -1.4688819
21
105_C9H9N3_16-0-9-10 (165,) energy =    -512.6254035
C           3.3841400    -1.1791445    -1.8139872
H           3.9510011    -0.9923006    -2.7337998
H           3.4425868    -2.2589201    -1.6340991
C           5.5482278     0.7087641     1.3422279
H           6.1537649     1.1363698     2.1357342
C           4.3802445     1.3281504     0.9013671
H           4.0478754     2.2644937     1.3421851
C           3.6431103     0.7316625    -0.1204654
H           2.7405567     1.1952387    -0.5044149
C           4.0997450    -0.4735306    -0.6660053
N           5.2288878    -1.0713416    -0.2516334
C           5.9258539    -0.4858186     0.7280170
H           6.8344083    -1.0009969     1.0373334
C           0.2096629     0.2756133    -2.7520318
H          -0.3735653     0.9871987    -3.3208508
N           1.5810054     0.2163404    -2.8732053
C           1.9716318    -0.7506034    -2.0634732
N           0.8966681    -1.3121845    -1.4224922
H           0.9314891    -2.0675539    -0.7529525
C          -0.2405052    -0.6625384    -1.8584254
H          -1.2261389    -0.9305788    -1.5087462
21
105_C9H9N3_16-0-9-10 (180,) energy =    -512.6245016
C           3.1483057    -1.8089564    -1.0831427
H           3.7078733    -2.2977392    -1.8909706
H           2.9091722    -2.6002012    -0.3639912
C           5.8814891     0.7974664     0.9038294
H           6.6238710     1.3977401     1.4211992
C           4.6911212     1.3511964     0.4381401
H           4.4741265     2.4059222     0.5863912
C           3.7740523     0.5305722    -0.2180012
H           2.8273938     0.9239140    -0.5721393
C           4.0834407    -0.8225292    -0.3898002
N           5.2257588    -1.3643725     0.0644159
C           6.0942921    -0.5656207     0.6919634
H           7.0078773    -1.0419184     1.0457575
C          -0.1416054    -0.4855958    -1.7904863
H          -1.1415495    -0.2178190    -1.4765156
N           0.7626037    -1.0328589    -0.9072659
C           1.8627862    -1.2461165    -1.6048506
N           1.6966842    -0.8491664    -2.9078036
H           2.3874774    -0.9130037    -3.6418036
C           0.4121525    -0.3615352    -3.0395205
H           0.0290813     0.0042162    -3.9802553
