26
079_C13H12O_0-13-14-21 (-165,) energy =    -577.8309325
C           0.1606085     1.2467131    -0.5967783
C           0.2928627     2.4647820    -1.4757349
H          -0.6794088     2.7561242    -1.8845893
C          -1.0750849     0.6475137    -0.3408434
H           0.9784787     2.2827912    -2.3116255
H          -1.9645198     1.0758337    -0.7975051
C          -1.1909605    -0.4781747     0.4786516
H           0.7005671     3.3175768    -0.9196446
H          -2.1652614    -0.9239729     0.6572316
C          -0.0485471    -1.0190879     1.0641849
H          -0.1209796    -1.8895448     1.7107424
C           1.2020050    -0.4425758     0.8310937
H           2.0919913    -0.8544850     1.2938391
C           1.2987801     0.6745142     0.0002363
O           2.4884809     1.3346898    -0.2517029
C           6.2546213    -0.3172124     0.4297373
H           7.2471798    -0.7265790     0.5946378
C           5.8674665     0.8642960     1.0643906
H           6.5580780     1.3791920     1.7267482
C           4.5915899     1.3911812     0.8569468
H           4.2710690     2.3090886     1.3395287
C           3.7074345     0.7314595     0.0033533
C           4.0857053    -0.4475844    -0.6452342
H           3.3874958    -0.9404277    -1.3145253
C           5.3600991    -0.9690796    -0.4231458
H           5.6572217    -1.8849519    -0.9269709
26
079_C13H12O_0-13-14-21 (-150,) energy =    -577.8311893
C           0.1928750     1.2277870    -0.5849998
C           0.3662004     2.4472141    -1.4552617
H          -0.5639102     2.6847614    -1.9804435
C          -1.0381543     0.5770910    -0.4574267
H           1.1553546     2.2978403    -2.2012199
H          -1.8906101     0.9635126    -1.0114583
C          -1.1928789    -0.5487664     0.3540712
H           0.6585675     3.3231482    -0.8638510
H          -2.1609916    -1.0356113     0.4297977
C          -0.0989081    -1.0391611     1.0656798
H          -0.2052121    -1.9090666     1.7081526
C           1.1418681    -0.4084229     0.9644402
H           1.9965262    -0.7755486     1.5228149
C           1.2800512     0.7084014     0.1383275
O           2.4635581     1.4202969     0.0398618
C           6.2573314    -0.2916271     0.2852667
H           7.2562149    -0.7145536     0.3415431
C           5.9615388     0.9060854     0.9391615
H           6.7306018     1.4210280     1.5086173
C           4.6781525     1.4486865     0.8730372
H           4.4277758     2.3779758     1.3749643
C           3.6889537     0.7896839     0.1407613
C           3.9740838    -0.4055743    -0.5267008
H           3.1993335    -0.9032506    -1.1008563
C           5.2594330    -0.9414692    -0.4447870
H           5.4818449    -1.8700776    -0.9637726
26
079_C13H12O_0-13-14-21 (-135,) energy =    -577.8311535
C           0.2512532     1.2010071    -0.5671135
C           0.4915300     2.4093669    -1.4373653
H          -0.3809383     2.6157466    -2.0646839
C          -0.9736970     0.5241832    -0.5596035
H           1.3593470     2.2659791    -2.0913541
H          -1.7703016     0.8807473    -1.2085403
C          -1.1894958    -0.5911474     0.2515311
H           0.6984822     3.3016850    -0.8348804
H          -2.1500591    -1.0982024     0.2325234
C          -0.1686169    -1.0470399     1.0859791
H          -0.3261946    -1.9092833     1.7281107
C           1.0604920    -0.3879915     1.1063301
H           1.8624460    -0.7223143     1.7569256
C           1.2613228     0.7192183     0.2802031
O           2.4389078     1.4495260     0.3216629
C           6.2412509    -0.2541670     0.1399986
H           7.2416985    -0.6741737     0.0911509
C           6.0086628     0.9359952     0.8334417
H           6.8292890     1.4481709     1.3287081
C           4.7248949     1.4744197     0.9028153
H           4.5236084     2.3969707     1.4382385
C           3.6664255     0.8196323     0.2675017
C           3.8861657    -0.3681289    -0.4368377
H           3.0610984    -0.8668690    -0.9341326
C           5.1759986    -0.8985633    -0.4913711
H           5.3459166    -1.8215285    -1.0396147
26
079_C13H12O_0-13-14-21 (-120,) energy =    -577.8309751
C           0.3175991     1.1519955    -0.5387691
C           0.6441301     2.3374870    -1.4126210
H          -0.1676113     2.5343004    -2.1194156
C          -0.9011303     0.4695840    -0.6382993
H           1.5641289     2.1724635    -1.9852885
H          -1.6289673     0.8046141    -1.3736653
C          -1.1952514    -0.6241581     0.1771729
H           0.8050025     3.2419671    -0.8146755
H          -2.1485727    -1.1349891     0.0745578
C          -0.2647140    -1.0548337     1.1238345
H          -0.4861884    -1.9010316     1.7683189
C           0.9539553    -0.3886334     1.2507054
H           1.6897173    -0.6975962     1.9869341
C           1.2337710     0.6980084     0.4214189
O           2.4055907     1.4244839     0.5847220
C           6.2077839    -0.1811813    -0.0210983
H           7.2077761    -0.5763223    -0.1743964
C           6.0158796     0.9878360     0.7204774
H           6.8685557     1.5082773     1.1485592
C           4.7344377     1.4947706     0.9228179
H           4.5655198     2.4002085     1.4973080
C           3.6329537     0.8292716     0.3752765
C           3.8100972    -0.3379690    -0.3731492
H           2.9535981    -0.8484110    -0.7998415
C           5.1012263    -0.8354124    -0.5630715
H           5.2368729    -1.7427983    -1.1458845
26
079_C13H12O_0-13-14-21 (-105,) energy =    -577.8308673
C           0.3974231     1.0964051    -0.5017544
C           0.8308267     2.2507572    -1.3708337
H           0.0980615     2.4387377    -2.1612695
C          -0.8192240     0.4319483    -0.7011487
H           1.8004182     2.0559546    -1.8434962
H          -1.4661805     0.7570642    -1.5126198
C          -1.2131839    -0.6304410     0.1138946
H           0.9455263     3.1693263    -0.7837247
H          -2.1628440    -1.1264189    -0.0665253
C          -0.3891568    -1.0489195     1.1594643
H          -0.6901275    -1.8711139     1.8026864
C           0.8255796    -0.4008249     1.3840184
H           1.4828559    -0.6966654     2.1960948
C           1.2053494     0.6548339     0.5562358
O           2.3754731     1.3539695     0.8292822
C           6.1618216    -0.0743590    -0.1868957
H           7.1577665    -0.4247583    -0.4416606
C           5.9944951     1.0685169     0.6009067
H           6.8625675     1.6130738     0.9630819
C           4.7195325     1.5194647     0.9315868
H           4.5707393     2.4041810     1.5427948
C           3.5972442     0.8227370     0.4699262
C           3.7488930    -0.3199304    -0.3203246
H           2.8774133    -0.8580606    -0.6764360
C           5.0357373    -0.7595982    -0.6417601
H           5.1508072    -1.6484351    -1.2567585
26
079_C13H12O_0-13-14-21 (-90,) energy =    -577.8308534
C           0.4778265     1.0216416    -0.4582022
C           1.0237481     2.1291975    -1.3244091
H           0.3105557     2.3961754    -2.1099157
C          -0.7423731     0.3946332    -0.7385616
H           1.9648172     1.8369295    -1.8057925
H          -1.3064615     0.7158607    -1.6111350
C          -1.2474211    -0.6206377     0.0759591
H           1.2373001     3.0258649    -0.7319583
H          -2.1987071    -1.0857294    -0.1673378
C          -0.5338390    -1.0290695     1.2028508
H          -0.9216404    -1.8138786     1.8462486
C           0.6847612    -0.4205441     1.5060309
H           1.2603236    -0.7089561     2.3803176
C           1.1769204     0.5867743     0.6785344
O           2.3513349     1.2362276     1.0437983
C           6.1057709     0.0656225    -0.3498624
H           7.0938630    -0.2200956    -0.6985629
C           5.9446777     1.1764863     0.4839595
H           6.8094045     1.7606207     0.7877866
C           4.6800851     1.5468491     0.9326586
H           4.5356185     2.4061500     1.5801110
C           3.5618926     0.7989865     0.5467835
C           3.7077450    -0.3149486    -0.2844313
H           2.8402258    -0.8965985    -0.5762700
C           4.9842711    -0.6716037    -0.7276475
H           5.0947353    -1.5383695    -1.3742084
26
079_C13H12O_0-13-14-21 (-75,) energy =    -577.8305292
C           0.5500569     1.1638480     0.0250456
C           1.2343432     2.5037375    -0.0839988
H           0.5406062     3.2626699    -0.4579283
C          -0.7205959     0.9445267    -0.5213775
H           2.0940960     2.4670702    -0.7638029
H          -1.2088230     1.7619001    -1.0471659
C          -1.3734043    -0.2829906    -0.3956895
H           1.6143600     2.8326271     0.8894512
H          -2.3608927    -0.4170171    -0.8284584
C          -0.7600549    -1.3281566     0.2947479
H          -1.2614105    -2.2855930     0.4053755
C           0.5078749    -1.1400230     0.8453403
H           1.0129369    -1.9310846     1.3909864
C           1.1489104     0.0896047     0.7048048
O           2.3775522     0.2508710     1.3352488
C           5.9905179     0.4418995    -0.7424449
H           6.9433296     0.4931460    -1.2611802
C           5.8974952     0.8106413     0.6028431
H           6.7806785     1.1507222     1.1372207
C           4.6770721     0.7502585     1.2706089
H           4.5857615     1.0335831     2.3145706
C           3.5364227     0.3130074     0.5889496
C           3.6157194    -0.0659538    -0.7539577
H           2.7307748    -0.4161504    -1.2744504
C           4.8467369     0.0060220    -1.4109730
H           4.9054393    -0.2882310    -2.4556955
26
079_C13H12O_0-13-14-21 (-60,) energy =    -577.8294057
C           0.6226992     1.0799409     0.0069949
C           1.3900395     2.3715020    -0.1404819
H           0.7144966     3.1848986    -0.4226807
C          -0.6693902     0.9522326    -0.5204730
H           2.1720952     2.3020121    -0.9057140
H          -1.0908554     1.7951204    -1.0636396
C          -1.4276806    -0.2067332    -0.3530709
H           1.8862809     2.6479024     0.7957823
H          -2.4278859    -0.2650198    -0.7731123
C          -0.9007513    -1.2789830     0.3667922
H          -1.4818408    -2.1852411     0.5129503
C           0.3855773    -1.1866711     0.8954570
H           0.8292121    -2.0039077     1.4555712
C           1.1346623    -0.0234434     0.7139987
O           2.3825974     0.0036771     1.3230587
C           5.9604530     0.5999090    -0.7351587
H           6.9048113     0.7504256    -1.2500750
C           5.8400215     0.9073557     0.6227518
H           6.6930440     1.2984856     1.1709430
C           4.6288225     0.7210957     1.2858464
H           4.5161997     0.9548507     2.3399343
C           3.5282415     0.2194132     0.5851308
C           3.6378059    -0.1047980    -0.7701632
H           2.7828405    -0.5097952    -1.3017241
C           4.8561417     0.0949144    -1.4228105
H           4.9391254    -0.1555015    -2.4772409
26
079_C13H12O_0-13-14-21 (-45,) energy =    -577.8273659
C           0.6810406     1.0076083    -0.0404198
C           1.4996705     2.2613529    -0.2457764
H           0.8405740     3.1007564    -0.4887360
C          -0.6375975     0.9539324    -0.5167764
H           2.2273004     2.1591827    -1.0588887
H          -1.0173178     1.8111618    -1.0683292
C          -1.4722957    -0.1390075    -0.2903376
H           2.0652432     2.5250508     0.6535946
H          -2.4884325    -0.1353761    -0.6744110
C          -0.9969886    -1.2241093     0.4464544
H          -1.6341945    -2.0820295     0.6423548
C           0.3109651    -1.2098299     0.9225842
H           0.7177782    -2.0435611     1.4862438
C           1.1402173    -0.1105984     0.6821263
O           2.4085825    -0.2105405     1.2352019
C           5.9715930     0.7572378    -0.6987740
H           6.9134416     0.9974510    -1.1834087
C           5.8030579     0.9897518     0.6683250
H           6.6156604     1.4115253     1.2538347
C           4.5940945     0.6879767     1.2938456
H           4.4444519     0.8600941     2.3551364
C           3.5468023     0.1482919     0.5435449
C           3.7078753    -0.1065734    -0.8216349
H           2.8932710    -0.5467615    -1.3882650
C           4.9205922     0.2085772    -1.4364159
H           5.0442875     0.0134476    -2.4984741
26
079_C13H12O_0-13-14-21 (-30,) energy =    -577.8247538
C           0.7042872     0.9490116    -0.0827619
C           1.5621349     2.1625503    -0.3688599
H           0.9196666     3.0251193    -0.5725253
C          -0.6465589     0.9711746    -0.4680699
H           2.2185713     2.0228934    -1.2350511
H          -1.0062525     1.8445221    -1.0076778
C          -1.5347577    -0.0589768    -0.1706248
H           2.2066761     2.4179725     0.4772452
H          -2.5715431     0.0074924    -0.4876816
C          -1.0808957    -1.1627026     0.5525713
H          -1.7561934    -1.9752733     0.8059832
C           0.2529081    -1.2263829     0.9391967
H           0.6437804    -2.0787131     1.4861065
C           1.1388243    -0.1878113     0.6277248
O           2.4273178    -0.4129146     1.0859552
C           5.9858708     0.8883488    -0.6439266
H           6.9281715     1.2099143    -1.0779626
C           5.7507551     1.0492224     0.7233393
H           6.5108525     1.4958459     1.3587470
C           4.5409682     0.6412332     1.2855414
H           4.3400755     0.7538288     2.3463346
C           3.5622297     0.0714036     0.4693873
C           3.7935953    -0.1157039    -0.8966743
H           3.0316803    -0.5861892    -1.5107717
C           5.0046032     0.3038066    -1.4480890
H           5.1842238     0.1623654    -2.5106229
26
079_C13H12O_0-13-14-21 (-15,) energy =    -577.8222835
C           0.7182803     0.8932593    -0.1055538
C           1.6066088     2.0574140    -0.4929103
H           0.9841548     2.9292251    -0.7179720
C          -0.6616631     1.0037746    -0.3509941
H           2.2188242     1.8493284    -1.3770247
H          -1.0146619     1.9058401    -0.8458396
C          -1.5820203     0.0283188     0.0203457
H           2.2958393     2.3391934     0.3081762
H          -2.6382552     0.1660455    -0.1921031
C          -1.1292323    -1.1154176     0.6790341
H          -1.8245198    -1.8909402     0.9884897
C           0.2284120    -1.2656354     0.9320388
H           0.6158521    -2.1493751     1.4292645
C           1.1478786    -0.2799421     0.5479709
O           2.4498481    -0.6241794     0.8739818
C           6.0154211     0.9895303    -0.5500429
H           6.9596989     1.3891551    -0.9085235
C           5.6742805     1.0984439     0.7997754
H           6.3535511     1.5823231     1.4964340
C           4.4616905     0.5876758     1.2651576
H           4.1807905     0.6564676     2.3114749
C           3.5880739    -0.0286599     0.3683892
C           3.9289438    -0.1653275    -0.9799545
H           3.2477623    -0.6770554    -1.6533072
C           5.1408629     0.3544197    -1.4353139
H           5.4060810     0.2530899    -2.4843407
26
079_C13H12O_0-13-14-21 (0,) energy =    -577.8211039
C           0.7162879     0.8745880    -0.0978310
C           1.6221518     1.9829976    -0.5947753
H           1.0117657     2.8344738    -0.9115398
C          -0.6717501     1.0990773    -0.1184269
H           2.2323827     1.6769043    -1.4500799
H          -1.0206708     2.0596789    -0.4906082
C          -1.6041966     0.1593567     0.3104243
H           2.3136982     2.3394858     0.1748866
H          -2.6655868     0.3866692     0.2720520
C          -1.1536485    -1.0717201     0.7872362
H          -1.8560485    -1.8269658     1.1291828
C           0.2102746    -1.3322005     0.8238067
H           0.5938663    -2.2797268     1.1890707
C           1.1414144    -0.3787274     0.3895095
O           2.4431539    -0.8382750     0.5109481
C           6.0203910     1.0713511    -0.4421140
H           6.9670247     1.5469595    -0.6822763
C           5.4664080     1.2161778     0.8319701
H           5.9826421     1.8027492     1.5871613
C           4.2519058     0.6046090     1.1461579
H           3.8113488     0.6956025     2.1343763
C           3.5887889    -0.1430840     0.1716062
C           4.1435084    -0.3125255    -1.0980257
H           3.6205034    -0.9236072    -1.8273932
C           5.3585413     0.3029198    -1.4025769
H           5.7905188     0.1764863    -2.3916666
26
079_C13H12O_0-13-14-21 (15,) energy =    -577.8222835
C           0.7184067     0.8928884    -0.1066522
C           1.5955688     1.9657133    -0.7182478
H           0.9646715     2.7684985    -1.1127877
C          -0.6386323     1.1910288     0.1084180
H           2.2038113     1.5850586    -1.5436732
H          -0.9792284     2.1941864    -0.1383100
C          -1.5529196     0.2656405     0.6025745
H           2.2877604     2.4118328     0.0039746
H          -2.5913673     0.5490428     0.7476371
C          -1.1185121    -1.0282547     0.8926834
H          -1.8103152    -1.7751830     1.2723270
C           0.2170484    -1.3593150     0.7017862
H           0.5911065    -2.3522135     0.9310729
C           1.1311856    -0.4176838     0.2096493
O           2.4118172    -0.9366723     0.1067602
C           6.0276422     1.0878177    -0.3085227
H           6.9846068     1.5910861    -0.4124718
C           5.2542625     1.2806484     0.8389230
H           5.6113112     1.9302798     1.6336365
C           4.0267123     0.6330833     0.9804251
H           3.4235228     0.7597514     1.8745059
C           3.5676412    -0.1973061    -0.0455510
C           4.3397383    -0.4115757    -1.1880117
H           3.9684377    -1.0820576    -1.9567736
C           5.5691248     0.2365398    -1.3161537
H           6.1694020     0.0737393    -2.2072473
26
079_C13H12O_0-13-14-21 (30,) energy =    -577.8247539
C           0.7057167     0.8888902    -0.1489791
C           1.5391602     1.9291568    -0.8656599
H           0.8845904     2.7089666    -1.2678049
C          -0.6071260     1.2181005     0.2275701
H           2.1009602     1.5006255    -1.7006788
H          -0.9514364     2.2317520     0.0345454
C          -1.4787277     0.3023174     0.8108623
H           2.2703058     2.4128533    -0.2082360
H          -2.4863741     0.6052107     1.0806279
C          -1.0477520    -1.0074447     1.0253070
H          -1.7116728    -1.7437678     1.4697803
C           0.2495708    -1.3667154     0.6782505
H           0.6234725    -2.3714554     0.8486718
C           1.1198518    -0.4350321     0.0993466
O           2.3719403    -0.9583080    -0.1821991
C           6.0148101     1.0625528    -0.1666592
H           6.9780569     1.5644602    -0.1635237
C           5.1276087     1.2369334     0.8980864
H           5.4020872     1.8706503     1.7372963
C           3.8904222     0.5919792     0.9030571
H           3.2014898     0.7085025     1.7342033
C           3.5365816    -0.2191294    -0.1793218
C           4.4208221    -0.4122256    -1.2421403
H           4.1268120    -1.0645717    -2.0584409
C           5.6581257     0.2320427    -1.2313424
H           6.3444803     0.0838245    -2.0607314
26
079_C13H12O_0-13-14-21 (45,) energy =    -577.8273651
C           0.6798209     0.9039555    -0.2192383
C           1.4660119     1.9178852    -1.0179779
H           0.7999103     2.7114917    -1.3708851
C          -0.5906701     1.2413658     0.2710394
H           1.9407521     1.4613831    -1.8923483
H          -0.9531499     2.2523107     0.0982704
C          -1.4008279     0.3286562     0.9442379
H           2.2650990     2.3858047    -0.4318646
H          -2.3801179     0.6328495     1.3027336
C          -0.9501993    -0.9776880     1.1358349
H          -1.5695312    -1.7074617     1.6499270
C           0.3111816    -1.3428387     0.6739866
H           0.6992559    -2.3461785     0.8190368
C           1.1167109    -0.4156330     0.0067910
O           2.3362428    -0.9150051    -0.4269269
C           6.0125208     1.0095677    -0.0348191
H           6.9826390     1.4885227     0.0606949
C           5.0494333     1.1652379     0.9642097
H           5.2704562     1.7617669     1.8454831
C           3.8013943     0.5506516     0.8517985
H           3.0548522     0.6568818     1.6326997
C           3.5150911    -0.2131731    -0.2836527
C           4.4737086    -0.3838509    -1.2850842
H           4.2280635    -0.9953839    -2.1476575
C           5.7194967     0.2286966    -1.1554194
H           6.4628250     0.0959753    -1.9370164
26
079_C13H12O_0-13-14-21 (60,) energy =    -577.8294057
C           0.6278786     0.9363442    -0.2935337
C           1.3564420     1.9368161    -1.1577858
H           0.6784874     2.7393931    -1.4641546
C          -0.6069208     1.2580225     0.2859516
H           1.7575606     1.4642482    -2.0605719
H          -1.0098952     2.2549544     0.1220571
C          -1.3332596     0.3382500     1.0427149
H           2.2049448     2.3935593    -0.6348572
H          -2.2895963     0.6244486     1.4713849
C          -0.8322886    -0.9497742     1.2313771
H          -1.3898060    -1.6800344     1.8112255
C           0.3979959    -1.2974569     0.6762358
H           0.8206847    -2.2885998     0.8080917
C           1.1162370    -0.3644680    -0.0726470
O           2.3035710    -0.8135896    -0.6361559
C           6.0243698     0.9232454     0.0921677
H           7.0042284     1.3570381     0.2690732
C           5.0048407     1.0804099     1.0319701
H           5.1897420     1.6338289     1.9490122
C           3.7419429     0.5249504     0.8158771
H           2.9530555     0.6360048     1.5526751
C           3.5010932    -0.1846583    -0.3641239
C           4.5159650    -0.3531210    -1.3105152
H           4.3020178    -0.9172273    -2.2129793
C           5.7732052     0.2002301    -1.0770807
H           6.5591990     0.0677051    -1.8158646
26
079_C13H12O_0-13-14-21 (75,) energy =    -577.8305292
C           0.5508560     0.9862952    -0.3585606
C           1.1915112     1.9976157    -1.2762974
H           0.5052602     2.8254594    -1.4783175
C          -0.6574319     1.2548486     0.2965171
H           1.4724650     1.5407416    -2.2315450
H          -1.1274381     2.2237492     0.1440633
C          -1.2724290     0.3113608     1.1213608
H           2.1081444     2.4160875    -0.8434827
H          -2.2121059     0.5517823     1.6108461
C          -0.6838121    -0.9397795     1.3042610
H          -1.1568360    -1.6847093     1.9379839
C           0.5225944    -1.2335130     0.6682313
H           1.0068323    -2.1979395     0.7865283
C           1.1270605    -0.2777098    -0.1464544
O           2.2883524    -0.6449405    -0.8169721
C           6.0608698     0.8142749     0.2048365
H           7.0531522     1.1794089     0.4530235
C           4.9978026     1.0088702     1.0864045
H           5.1592378     1.5249301     2.0293317
C           3.7171598     0.5421993     0.7791982
H           2.8954302     0.6857521     1.4726110
C           3.5054853    -0.1205543    -0.4329446
C           4.5643347    -0.3231549    -1.3244361
H           4.3706668    -0.8454082    -2.2562150
C           5.8358650     0.1430453    -1.0006829
H           6.6549888    -0.0173739    -1.6967727
26
079_C13H12O_0-13-14-21 (90,) energy =    -577.8308529
C           0.4612961     1.0440588    -0.4201749
C           0.9984344     2.0708470    -1.3857212
H           0.3035942     2.9097100    -1.4877880
C          -0.7320450     1.2429522     0.2850606
H           1.1609423     1.6341073    -2.3774849
H          -1.2806946     2.1696549     0.1335039
C          -1.2299066     0.2812285     1.1661023
H           1.9647570     2.4690791    -1.0536488
H          -2.1601019     0.4648063     1.6966428
C          -0.5366190    -0.9142436     1.3567613
H          -0.9192676    -1.6714566     2.0353502
C           0.6547612    -1.1385279     0.6659543
H           1.2136529    -2.0616877     0.7853406
C           1.1404701    -0.1651809    -0.2049627
O           2.2849729    -0.4428909    -0.9449501
C           6.1100687     0.6477074     0.3160415
H           7.1156074     0.9206271     0.6226201
C           5.0214280     0.9224352     1.1427532
H           5.1755258     1.4120136     2.1009113
C           3.7229997     0.5749830     0.7599729
H           2.8812757     0.7850710     1.4106931
C           3.5212774    -0.0543257    -0.4714562
C           4.6059579    -0.3351818    -1.3099565
H           4.4184421    -0.8259460    -2.2599387
C           5.8929765     0.0157726    -0.9122259
H           6.7314962    -0.2058399    -1.5672274
26
079_C13H12O_0-13-14-21 (105,) energy =    -577.8308669
C           0.3895556     1.0980966    -0.4819826
C           0.8140851     2.1396566    -1.4872532
H           0.0979439     2.9663085    -1.5163840
C          -0.8024225     1.2091528     0.2449279
H           0.8874133     1.7134948    -2.4945418
H          -1.4362937     2.0776378     0.0815531
C          -1.1882825     0.2354923     1.1675222
H           1.8010960     2.5513454    -1.2468729
H          -2.1186319     0.3507331     1.7166624
C          -0.3812763    -0.8833215     1.3782637
H          -0.6762335    -1.6492180     2.0901102
C           0.8085585    -1.0218958     0.6633274
H           1.4520567    -1.8861213     0.7975891
C           1.1806248    -0.0366710    -0.2502761
O           2.3232161    -0.2132248    -1.0220671
C           6.1726478     0.4647737     0.4371804
H           7.1842197     0.6350269     0.7939535
C           5.0783497     0.8230801     1.2236799
H           5.2339280     1.2775708     2.1987584
C           3.7719535     0.6084538     0.7766681
H           2.9252620     0.8884557     1.3935867
C           3.5681312     0.0246617    -0.4766809
C           4.6582264    -0.3383593    -1.2753703
H           4.4683353    -0.7890280    -2.2445141
C           5.9533946    -0.1162522    -0.8154752
H           6.7962459    -0.4010772    -1.4397826
26
079_C13H12O_0-13-14-21 (120,) energy =    -577.8309752
C           0.3072672     1.1451024    -0.5289785
C           0.6238309     2.1988615    -1.5609830
H          -0.1658996     2.9552615    -1.5986186
C          -0.8894178     1.1542330     0.1983475
H           0.7261794     1.7606741    -2.5606220
H          -1.6060759     1.9513601     0.0146422
C          -1.1753018     0.1724788     1.1481239
H           1.5716352     2.7035900    -1.3414000
H          -2.1111293     0.2077842     1.6988342
C          -0.2587330    -0.8530575     1.3843881
H          -0.4740168    -1.6261390     2.1168296
C           0.9374784    -0.8918078     0.6685572
H           1.6613599    -1.6854179     0.8267419
C           1.2095853     0.1025169    -0.2717781
O           2.3563588     0.0383242    -1.0518907
C           6.2155158     0.2821324     0.5133075
H           7.2297731     0.3446549     0.8966928
C           5.1422236     0.7324368     1.2824236
H           5.3182035     1.1528064     2.2692143
C           3.8335689     0.6570844     0.8004500
H           3.0029684     1.0120147     1.4006954
C           3.6047132     0.1176567    -0.4686686
C           4.6725633    -0.3361383    -1.2495163
H           4.4636962    -0.7478779    -2.2319679
C           5.9721927    -0.2499550    -0.7559536
H           6.7984238    -0.6045887    -1.3664915
26
079_C13H12O_0-13-14-21 (135,) energy =    -577.8311538
C           0.2416881     1.1826106    -0.5695896
C           0.4700418     2.2400145    -1.6207879
H          -0.3892570     2.9142627    -1.6862448
C          -0.9635539     1.0851853     0.1353844
H           0.6305524     1.7937056    -2.6093257
H          -1.7525675     1.8017294    -0.0810525
C          -1.1687146     0.1014189     1.1040094
H           1.3612730     2.8385400    -1.4000416
H          -2.1135002     0.0535601     1.6380947
C          -0.1569763    -0.8189052     1.3792228
H          -0.3067571    -1.5946559     2.1251478
C           1.0520770    -0.7521631     0.6871267
H           1.8460739    -1.4663946     0.8810567
C           1.2429155     0.2453929    -0.2706597
O           2.3979468     0.3037275    -1.0352896
C           6.2503506     0.1161492     0.5519704
H           7.2634215     0.0722285     0.9411458
C           5.2208235     0.6547429     1.3257484
H           5.4316134     1.0380792     2.3206976
C           3.9156505     0.7172358     0.8351186
H           3.1180188     1.1425320     1.4348233
C           3.6438727     0.2250436    -0.4451477
C           4.6661979    -0.3155464    -1.2295961
H           4.4254972    -0.6858336    -2.2211764
C           5.9659163    -0.3645304    -0.7283938
H           6.7581977    -0.7855572    -1.3416346
26
079_C13H12O_0-13-14-21 (150,) energy =    -577.8311895
C           0.1925093     1.2067964    -0.5914594
C           0.3577697     2.2664820    -1.6517873
H          -0.5646227     2.8427766    -1.7717943
C          -1.0239675     0.9980052     0.0658074
H           0.6145288     1.8254777    -2.6223908
H          -1.8707866     1.6281668    -0.1963485
C          -1.1708339     0.0117587     1.0433218
H           1.1682945     2.9606109    -1.4011934
H          -2.1273306    -0.1239971     1.5400163
C          -0.0836744    -0.7962290     1.3736531
H          -0.1845404    -1.5738820     2.1258950
C           1.1423695    -0.6172944     0.7315936
H           1.9917369    -1.2476301     0.9730214
C           1.2728504     0.3823746    -0.2341053
O           2.4397070     0.5737286    -0.9546884
C           6.2671334    -0.0412496     0.5802017
H           7.2745723    -0.1906351     0.9577496
C           5.3065960     0.5934115     1.3712546
H           5.5666663     0.9452832     2.3660926
C           4.0110786     0.7929880     0.8939773
H           3.2649297     1.2940350     1.5020613
C           3.6776525     0.3405836    -0.3865190
C           4.6291943    -0.2945218    -1.1865633
H           4.3419306    -0.6289061    -2.1784565
C           5.9234421    -0.4796380    -0.7001057
H           6.6630751    -0.9731153    -1.3248674
26
079_C13H12O_0-13-14-21 (165,) energy =    -577.8309324
C           0.1600389     1.2355478    -0.6196136