24
312_C10H14_9-11-12-15 (-165,) energy =    -389.4977172
C           2.3681234    -2.2419963    -0.4440973
H           2.1496352    -2.3507768     0.6236916
H           3.3006984    -2.7818520    -0.6437287
H           1.5651537    -2.7321134    -1.0073150
C           2.4955186    -0.7610636    -0.8456491
H           1.5382522    -0.2594260    -0.7061921
H           2.7023226    -0.7138032    -1.9225873
C           5.9081475     1.1660568     1.0186857
H           6.7750457     1.6413058     1.4703139
C           4.6483203     1.3407314     1.5769785
H           4.5496646     1.9579830     2.4682553
C           3.4839560     0.7521896     1.0432714
C           2.2060017     1.1259771     1.8071944
H           2.0055617     2.1895586     1.6080216
H           2.4680125     1.0880658     2.8724804
C           0.8843383     0.3652309     1.6371282
H           0.1919592     0.6821910     2.4258397
H           1.0110908    -0.7178953     1.7301589
H           0.3928227     0.5723534     0.6828991
C           3.6200398    -0.0371521    -0.1200977
C           4.9053749    -0.2066707    -0.6704989
H           5.0005729    -0.8147971    -1.5682687
C           6.0413040     0.3756295    -0.1233231
H           7.0134407     0.2216481    -0.5841734
24
312_C10H14_9-11-12-15 (-150,) energy =    -389.4995508
C           2.2420854    -2.1550295    -0.5260747
H           1.9422341    -2.2496407     0.5220011
H           3.1422130    -2.7638065    -0.6682061
H           1.4449080    -2.5799277    -1.1475851
C           2.5128730    -0.6892322    -0.9095596
H           1.5943141    -0.1037485    -0.8247096
H           2.7819797    -0.6594056    -1.9731271
C           5.9172689     1.1558523     1.0442878
H           6.7768079     1.6400136     1.5004565
C           4.6451453     1.3544279     1.5704468
H           4.5329848     1.9936731     2.4440035
C           3.4932081     0.7465656     1.0358738
C           2.1808910     1.1539570     1.7122160
H           1.8299727     2.0817317     1.2328427
H           2.4319805     1.4445119     2.7390147
C           0.9883975     0.1876075     1.7809084
H           0.2219205     0.6137359     2.4388456
H           1.2779974    -0.7814703     2.2024747
H           0.5164130     0.0081133     0.8138348
C           3.6463926    -0.0434633    -0.1272423
C           4.9407005    -0.2440978    -0.6390259
H           5.0499990    -0.8603714    -1.5296004
C           6.0708099     0.3323989    -0.0698559
H           7.0526283     0.1560147    -0.5012575
24
312_C10H14_9-11-12-15 (-135,) energy =    -389.5029070
C           2.2242655    -2.1122564    -0.6226039
H           1.9533785    -2.2594673     0.4277319
H           3.1161616    -2.7174747    -0.8202319
H           1.4082207    -2.5006693    -1.2434658
C           2.4940196    -0.6292180    -0.9352466
H           1.5793895    -0.0449564    -0.7970252
H           2.7415546    -0.5429005    -2.0012546
C           5.9103042     1.1061121     1.0908975
H           6.7721630     1.5680901     1.5653069
C           4.6295922     1.3551780     1.5773993
H           4.5112391     2.0096810     2.4384686
C           3.4801107     0.7737168     1.0144873
C           2.1399256     1.2016443     1.6063344
H           1.6788122     1.9396395     0.9310627
H           2.3484051     1.7480135     2.5330327
C           1.0890305     0.1206011     1.9127401
H           0.2520711     0.5679330     2.4616969
H           1.5088617    -0.6742467     2.5405190
H           0.6772160    -0.3443812     1.0158446
C           3.6411830    -0.0318992    -0.1367086
C           4.9391134    -0.2795223    -0.6114419
H           5.0553728    -0.9038661    -1.4956033
C           6.0693315     0.2672374    -0.0104819
H           7.0577403     0.0567723    -0.4105261
24
312_C10H14_9-11-12-15 (-120,) energy =    -389.5058533
C           2.2396907    -2.0855755    -0.7379731
H           2.0139041    -2.3114033     0.3096243
H           3.1360264    -2.6542668    -1.0095268
H           1.4092345    -2.4513358    -1.3532429
C           2.4600562    -0.5770803    -0.9546346
H           1.5341353    -0.0355193    -0.7381615
H           2.6637789    -0.4079209    -2.0204520
C           5.8840850     1.0460771     1.1514020
H           6.7485214     1.4708147     1.6550372
C           4.5988469     1.3483092     1.5959160
H           4.4748561     2.0096888     2.4508664
C           3.4512083     0.8160649     0.9863807
C           2.0948549     1.2528096     1.5209186
H           1.5484452     1.7897914     0.7314737
H           2.2611261     1.9874075     2.3170513
C           1.1872445     0.1360243     2.0667755
H           0.2720577     0.5654636     2.4910507
H           1.6927083    -0.4264423     2.8604066
H           0.8902973    -0.5761201     1.2934130
C           3.6169381    -0.0080950    -0.1498528
C           4.9171339    -0.3013004    -0.5880242
H           5.0403253    -0.9315619    -1.4670232
C           6.0458079     0.2059163     0.0509459
H           7.0384943    -0.0385393    -0.3180790
24
312_C10H14_9-11-12-15 (-105,) energy =    -389.5073903
C           2.2684129    -2.0874761    -0.8268918
H           2.0525648    -2.3326678     0.2187123
H           3.1714683    -2.6382144    -1.1125573
H           1.4395128    -2.4567586    -1.4420103
C           2.4596507    -0.5715865    -1.0194744
H           1.5222371    -0.0582412    -0.7847865
H           2.6524232    -0.3783205    -2.0834506
C           5.8466196     0.9824588     1.1991848
H           6.7023366     1.3712849     1.7449925
C           4.5534685     1.3122716     1.5983541
H           4.4114290     1.9631953     2.4586641
C           3.4204328     0.8319606     0.9231101
C           2.0497555     1.2522455     1.4263451
H           1.4285271     1.6008666     0.5910261
H           2.1745864     2.1186089     2.0867976
C           1.2890050     0.1549542     2.1921507
H           0.3329807     0.5373735     2.5687710
H           1.8737570    -0.1987385     3.0488219
H           1.0762576    -0.7102843     1.5566503
C           3.6069471     0.0016258    -0.2042654
C           4.9153759    -0.3118831    -0.6021412
H           5.0587387    -0.9386362    -1.4805388
C           6.0293389     0.1623648     0.0862228
H           7.0296549    -0.0982504    -0.2496649
24
312_C10H14_9-11-12-15 (-90,) energy =    -389.5075264
C           2.2291529    -2.0375734    -0.8765151
H           1.9257930    -2.2158073     0.1608451
H           3.1281120    -2.6356173    -1.0631909
H           1.4328946    -2.4091064    -1.5321320
C           2.4971318    -0.5427663    -1.1333798
H           1.5678544     0.0168038    -0.9889764
H           2.7674242    -0.4141290    -2.1898407
C           5.8064065     0.9400294     1.2449027
H           6.6431873     1.3028142     1.8360940
C           4.5019694     1.2623473     1.6092580
H           4.3306531     1.8821747     2.4873858
C           3.3915036     0.8193792     0.8725621
C           2.0091633     1.2083565     1.3673709
H           1.3208302     1.3581106     0.5282496
H           2.0827907     2.1801296     1.8715751
C           1.3973613     0.1930527     2.3497938
H           0.4196883     0.5369571     2.7074827
H           2.0478866     0.0524621     3.2202847
H           1.2588023    -0.7862407     1.8792851
C           3.6135091     0.0236016    -0.2726383
C           4.9352524    -0.2812222    -0.6352223
H           5.1057918    -0.8799122    -1.5282470
C           6.0258388     0.1617135     0.1079780
H           7.0365083    -0.0911445    -0.2018744
24
312_C10H14_9-11-12-15 (-75,) energy =    -389.5075663
C           2.0384225    -1.8983069    -0.8487919
H           1.5504803    -1.8467307     0.1301622
H           2.8401716    -2.6421178    -0.7803444
H           1.3001322    -2.2595588    -1.5743891
C           2.5979547    -0.5286580    -1.2739879
H           1.7709593     0.1847183    -1.3692786
H           3.0277173    -0.6241177    -2.2787817
C           5.7777186     0.9462486     1.2814337
H           6.5813186     1.3190535     1.9112294
C           4.4504363     1.1958847     1.6201933
H           4.2277322     1.7690996     2.5184490
C           3.3826231     0.7341087     0.8348947
C           1.9717702     1.0340283     1.3119764
H           1.2511012     0.9199866     0.4963782
H           1.9189158     2.0872193     1.6186026
C           1.5304542     0.1574133     2.4990111
H           0.5160116     0.4200465     2.8212122
H           2.2015099     0.2881808     3.3552976
H           1.5390098    -0.9056681     2.2351902
C           3.6704980     0.0125090    -0.3445389
C           5.0137889    -0.2269978    -0.6752686
H           5.2359798    -0.7765114    -1.5880192
C           6.0622814     0.2236285     0.1227204
H           7.0911803     0.0230738    -0.1644276
24
312_C10H14_9-11-12-15 (-60,) energy =    -389.5071471
C           2.0337329    -1.8676396    -0.9053160
H           1.5401207    -1.8052408     0.0708512
H           2.8233331    -2.6233285    -0.8274352
H           1.2953632    -2.2202364    -1.6350610
C           2.6198081    -0.5087486    -1.3296029
H           1.8064905     0.2176720    -1.4452087
H           3.0680489    -0.6154981    -2.3249420
C           5.7545600     0.8918390     1.3173640
H           6.5456275     1.2384940     1.9772833
C           4.4203565     1.1037292     1.6559257
H           4.1851219     1.6249200     2.5815639
C           3.3679557     0.6775065     0.8312109
C           1.9406892     0.9362807     1.2897923
H           1.2248352     0.6043688     0.5334959
H           1.7912215     2.0212163     1.3887261
C           1.5899096     0.2723567     2.6331550
H           0.5566064     0.5007373     2.9189560
H           2.2440722     0.6215275     3.4389045
H           1.6936126    -0.8171631     2.5736703
C           3.6799689     0.0167940    -0.3772072
C           5.0291341    -0.1875528    -0.7060052
H           5.2676611    -0.6918633    -1.6403766
C           6.0627649     0.2372175     0.1250286
H           7.0975366     0.0650487    -0.1594304
24
312_C10H14_9-11-12-15 (-45,) energy =    -389.5063621
C           2.0800538    -1.9017333    -1.0346243
H           1.6122160    -1.9461494    -0.0446944
H           2.9004593    -2.6279739    -1.0425996
H           1.3364158    -2.2193089    -1.7749988
C           2.6019886    -0.4879350    -1.3504698
H           1.7596401     0.2124027    -1.3902661
H           3.0343855    -0.4920110    -2.3585265
C           5.7334089     0.8053109     1.3502645
H           6.5237824     1.1272215     2.0234720
C           4.3985152     0.9881866     1.7061848
H           4.1702867     1.4595169     2.6584062
C           3.3455741     0.5898541     0.8689486
C           1.9074761     0.8332152     1.3095653
H           1.2198664     0.2774250     0.6670773
H           1.6611769     1.8950550     1.1566645
C           1.6038122     0.4645972     2.7707972
H           0.5417497     0.6233965     2.9895542
H           2.1767039     1.0707544     3.4798390
H           1.8378152    -0.5876312     2.9684124
C           3.6606577    -0.0049445    -0.3736474
C           5.0089348    -0.1823714    -0.7179043
H           5.2465340    -0.6390054    -1.6767970
C           6.0432389     0.2112545     0.1279612
H           7.0782577     0.0617559    -0.1682009
24
312_C10H14_9-11-12-15 (-30,) energy =    -389.5064472
C           2.1303349    -1.9134912    -1.1723626
H           1.7011414    -2.0709825    -0.1764201
H           2.9773860    -2.6006567    -1.2763036
H           1.3731350    -2.1909220    -1.9150752
C           2.5854173    -0.4552028    -1.3683289
H           1.7151657     0.2090605    -1.3174073
H           2.9862566    -0.3477980    -2.3838294
C           5.7283076     0.7209696     1.3678171
H           6.5204620     1.0161598     2.0511170
C           4.3937857     0.8748394     1.7434542
H           4.1715949     1.2899363     2.7218946
C           3.3396868     0.5044841     0.8968282
C           1.8932717     0.7232674     1.3245600
H           1.2553820    -0.0214092     0.8378516
H           1.5482611     1.6963492     0.9421535
C           1.6235919     0.6587995     2.8342586
H           0.5477032     0.7323380     3.0276971
H           2.1062869     1.4765022     3.3798506
H           1.9809800    -0.2852994     3.2606102
C           3.6522756    -0.0212343    -0.3780370
C           4.9974752    -0.1691790    -0.7416693
H           5.2316400    -0.5737462    -1.7246129
C           6.0349234     0.1917859     0.1162405
H           7.0691201     0.0670083    -0.1939364
24
312_C10H14_9-11-12-15 (-15,) energy =    -389.5070169
C           2.1640129    -1.9096616    -1.2502367
H           1.7714348    -2.1500320    -0.2557811
H           3.0302035    -2.5571790    -1.4259864
H           1.3938842    -2.1629175    -1.9882568
C           2.5622485    -0.4254324    -1.3574385
H           1.6698634     0.1993179    -1.2376672
H           2.9314863    -0.2347234    -2.3728303
C           5.7161641     0.6552754     1.4021419
H           6.5102916     0.9231443     2.0943463
C           4.3823226     0.7792320     1.7944254
H           4.1640338     1.1429540     2.7935163
C           3.3275377     0.4425204     0.9363010
C           1.8764773     0.6149534     1.3678303
H           1.3018199    -0.2632406     1.0486653
H           1.4381143     1.4607774     0.8166486
C           1.6323140     0.8241688     2.8663283
H           0.5566228     0.8670166     3.0686436
H           2.0697927     1.7608570     3.2289874
H           2.0535008     0.0045198     3.4594333
C           3.6366146    -0.0216838    -0.3635890
C           4.9790975    -0.1372600    -0.7442342
H           5.2101117    -0.4912775    -1.7472971
C           6.0191196     0.1927521     0.1241736
H           7.0523702     0.0944783    -0.1984388
24
312_C10H14_9-11-12-15 (0,) energy =    -389.5071896
C           2.1859110    -1.8971630    -1.3010943
H           1.8055955    -2.1773934    -0.3124915
H           3.0612995    -2.5233252    -1.5061223
H           1.4135999    -2.1384244    -2.0408524
C           2.5574403    -0.4031691    -1.3615745
H           1.6537370     0.1988913    -1.2135396
H           2.9148861    -0.1719414    -2.3727755
C           5.7135630     0.5957546     1.4251429
H           6.5090009     0.8348972     2.1263130
C           4.3804573     0.6853136     1.8300473
H           4.1643413     0.9969335     2.8468828
C           3.3244314     0.3875703     0.9594966
C           1.8738031     0.4993705     1.4108703
H           1.3750337    -0.4682074     1.2624541
H           1.3483947     1.1963038     0.7420372
C           1.6393943     0.9511302     2.8555229
H           0.5649885     0.9985708     3.0631891
H           2.0573207     1.9466228     3.0428333
H           2.0858243     0.2573467     3.5768765
C           3.6315357    -0.0155680    -0.3617492
C           4.9727366    -0.0935358    -0.7554664
H           5.2023164    -0.3950248    -1.7758784
C           6.0139361     0.2054062     0.1229862
H           7.0462613     0.1368445    -0.2100715
24
312_C10H14_9-11-12-15 (15,) energy =    -389.5068008
C           2.1576495    -1.8587480    -1.3155512
H           1.7502205    -2.1319519    -0.3361241
H           3.0234706    -2.5031120    -1.5042627
H           1.3955647    -2.0821184    -2.0713616
C           2.5618666    -0.3731497    -1.3667193
H           1.6673839     0.2464642    -1.2326212
H           2.9389437    -0.1472297    -2.3718147
C           5.7160963     0.5578573     1.4477355
H           6.5123074     0.7778133     2.1542850
C           4.3851815     0.6006311     1.8653622
H           4.1715701     0.8594579     2.8975107
C           3.3260137     0.3277360     0.9894857
C           1.8827955     0.3651626     1.4751593
H           1.4885898    -0.6604814     1.5201408
H           1.2678584     0.8736647     0.7213196
C           1.6355125     1.0467312     2.8256326
H           0.5609466     1.0836671     3.0350194
H           2.0145112     2.0749430     2.8314374
H           2.1104429     0.5084695     3.6533350
C           3.6297319    -0.0065922    -0.3522833
C           4.9700622    -0.0369166    -0.7579816
H           5.1967468    -0.2828699    -1.7937076
C           6.0129162     0.2392710     0.1252941
H           7.0433078     0.2085930    -0.2191908
24
312_C10H14_9-11-12-15 (30,) energy =    -389.5064248
C           2.0847737    -1.7975112    -1.3070712
H           1.6314726    -2.0318369    -0.3380534
H           2.9193316    -2.4911182    -1.4586885
H           1.3359001    -1.9910666    -2.0840432
C           2.5712164    -0.3379591    -1.3674599
H           1.7095992     0.3328325    -1.2596414
H           2.9776397    -0.1448375    -2.3676839
C           5.7347499     0.5207760     1.4634836
H           6.5336004     0.7272521     2.1711315
C           4.4088178     0.5073733     1.8957719
H           4.2001903     0.7080129     2.9422413
C           3.3454096     0.2470947     1.0199371
C           1.9145278     0.2148718     1.5413224
H           1.6484145    -0.8200996     1.8037650
H           1.2293330     0.4911113     0.7323050
C           1.6178831     1.1182368     2.7464536
H           0.5478841     1.0923855     2.9805869
H           1.8946322     2.1583975     2.5407161
H           2.1532752     0.8010195     3.6474683
C           3.6402339    -0.0088877    -0.3407111
C           4.9775101     0.0147714    -0.7604675
H           5.1989478    -0.1729342    -1.8092592
C           6.0232978     0.2742760     0.1234888
H           7.0497442     0.2875209    -0.2336295
24
312_C10H14_9-11-12-15 (45,) energy =    -389.5064850
C           2.0823027    -1.7626794    -1.3454741
H           1.6477343    -2.0485869    -0.3814248
H           2.9230580    -2.4373153    -1.5418975
H           1.3242002    -1.9287124    -2.1198915
C           2.5501806    -0.2961308    -1.3412802
H           1.6838285     0.3597946    -1.1899701
H           2.9410031    -0.0489654    -2.3357811
C           5.7465232     0.4569416     1.4852973
H           6.5537127     0.6362298     2.1908569
C           4.4286670     0.4022462     1.9348658
H           4.2310967     0.5374343     2.9948564
C           3.3547877     0.1707226     1.0621890
C           1.9394310     0.1078104     1.6214281
H           1.7878736    -0.8688138     2.1054056
H           1.2134792     0.1433995     0.8042525
C           1.5872959     1.2145713     2.6286049
H           0.5417947     1.1219589     2.9439721
H           1.7216067     2.2077506     2.1855565
H           2.2051180     1.1669806     3.5310231
C           3.6300882    -0.0071879    -0.3133078
C           4.9615515     0.0556729    -0.7509134
H           5.1689480    -0.0752348    -1.8111052
C           6.0168845     0.2843868     0.1289656
H           7.0374055     0.3299821    -0.2422166
24
312_C10H14_9-11-12-15 (60,) energy =    -389.5072223
C           2.1066509    -1.7283917    -1.4094559
H           1.7236886    -2.1221688    -0.4613807
H           2.9683405    -2.3413922    -1.6963753
H           1.3274222    -1.8585669    -2.1696564
C           2.5093800    -0.2479085    -1.2821826
H           1.6226548     0.3507739    -1.0419892
H           2.8541149     0.1082207    -2.2606880
C           5.7642490     0.3801444     1.5111036
H           6.5859989     0.5306776     2.2064531
C           4.4570868     0.2937042     1.9835986
H           4.2743069     0.3723900     3.0532259
C           3.3676794     0.0934152     1.1217668
C           1.9721244     0.0263313     1.7238015
H           1.9277601    -0.8213320     2.4227514
H           1.2273331    -0.1871156     0.9528338
C           1.5600239     1.3032567     2.4771259
H           0.5531118     1.1966997     2.8971189
H           1.5595831     2.1716374     1.8085545
H           2.2444504     1.5233410     3.3030880
C           3.6118706    -0.0095521    -0.2651494
C           4.9342848     0.0812741    -0.7268820
H           5.1209032     0.0038091    -1.7962394
C           6.0057922     0.2733622     0.1415444
H           7.0181895     0.3421414    -0.2478608
24
312_C10H14_9-11-12-15 (75,) energy =    -389.5081160
C           2.7442806    -2.7075607     0.0252116
H           2.5676578    -2.6296668     1.1038718
H           3.7485252    -3.1231210    -0.1141145
H           2.0202541    -3.4205369    -0.3864668
C           2.6207956    -1.3366197    -0.6649439
H           1.5956731    -0.9645515    -0.5539742
H           2.7768968    -1.4699481    -1.7425824
C           5.5789819     1.5130858     0.7216272
H           6.3266964     2.2222855     1.0671280
C           4.3701519     1.3846093     1.4015235
H           4.1843760     1.9984816     2.2811023
C           3.3827291     0.4761385     0.9916171
C           2.0775326     0.4333243     1.7682274
H           2.3060426     0.4320158     2.8424503
H           1.5362206    -0.4974411     1.5757584
C           1.1585205     1.6302219     1.4633705
H           0.2388910     1.5794173     2.0580379
H           0.8777610     1.6528880     0.4040312
H           1.6584280     2.5779247     1.6916473
C           3.6210189    -0.3156862    -0.1517551
C           4.8435987    -0.1770263    -0.8262404
H           5.0267153    -0.7886780    -1.7076670
C           5.8188833     0.7228871    -0.4026792
H           6.7550643     0.8090680    -0.9480940
24
312_C10H14_9-11-12-15 (90,) energy =    -389.5086112
C           2.7278978    -2.6586130    -0.0193003
H           2.6229384    -2.6356492     1.0712726
H           3.7172888    -3.0715046    -0.2455100
H           1.9724302    -3.3455668    -0.4184840
C           2.5703445    -1.2526233    -0.6279211
H           1.5576675    -0.8842085    -0.4305086
H           2.6568160    -1.3296825    -1.7189836
C           5.6497790     1.4618444     0.7627733
H           6.4309042     2.1308440     1.1144394
C           4.4510013     1.3554676     1.4656333
H           4.3051904     1.9475051     2.3672811
C           3.4209696     0.5020739     1.0450732
C           2.1270400     0.4750709     1.8392185
H           2.3530026     0.6903522     2.8910838
H           1.6829350    -0.5263526     1.8246922
C           1.0912496     1.4981952     1.3370032
H           0.1776425     1.4602436     1.9418819
H           0.8152715     1.3078421     0.2936844
H           1.4928950     2.5162396     1.3900846
C           3.6100049    -0.2680258    -0.1226676
C           4.8206348    -0.1512381    -0.8204048
H           4.9649664    -0.7437438    -1.7220024
C           5.8360589     0.7014693    -0.3912200
H           6.7630186     0.7717393    -0.9543929
24
312_C10H14_9-11-12-15 (105,) energy =    -389.5077341
C           2.7386806    -2.6068304    -0.0626686
H           2.6904884    -2.6221053     1.0320940
H           3.7194212    -2.9985617    -0.3543744
H           1.9710334    -3.2894860    -0.4457079
C           2.5308649    -1.1820928    -0.6108727
H           1.5255966    -0.8420282    -0.3460830
H           2.5617996    -1.2176124    -1.7072856
C           5.7165330     1.3926881     0.7984960
H           6.5341563     2.0060308     1.1681472
C           4.5158758     1.3297700     1.5041489
H           4.4059604     1.9032093     2.4224688
C           3.4329299     0.5586781     1.0579243
C           2.1543361     0.5540066     1.8787508
H           2.3755041     0.9430803     2.8795537
H           1.8042873    -0.4760678     2.0261209
C           1.0111534     1.3853802     1.2655127
H           0.1172507     1.3413924     1.8986890
H           0.7349234     1.0301929     0.2678992
H           1.3054709     2.4366067     1.1684142
C           3.5877276    -0.2092918    -0.1176284
C           4.7977666    -0.1309882    -0.8212982
H           4.9106207    -0.7149942    -1.7329680
C           5.8560878     0.6615530    -0.3800356
H           6.7817216     0.7010418    -0.9483855
24
312_C10H14_9-11-12-15 (120,) energy =    -389.5048205
C           2.7612225    -2.5551839    -0.1140347
H           2.7480379    -2.6008192     0.9808995
H           3.7386274    -2.9208426    -0.4474342
H           1.9935056    -3.2409549    -0.4914919
C           2.5079594    -1.1194780    -0.6135955
H           1.5054311    -0.8154047    -0.3081309
H           2.5063652    -1.1217654    -1.7112955
C           5.7728935     1.3225721     0.8366489
H           6.6208974     1.8777266     1.2290372
C           4.5637369     1.3132199     1.5293681
H           4.4803408     1.8757831     2.4570063
C           3.4328738     0.6298451     1.0546647
C           2.1734588     0.6654199     1.9099772
H           2.3944053     1.2214842     2.8278831
H           1.9247544    -0.3562488     2.2329878
C           0.9234001     1.2828615     1.2538991
H           0.0888524     1.2896815     1.9647722
H           0.5957358     0.7404529     0.3644378
H           1.1144293     2.3194697     0.9526055
C           3.5662235    -0.1476480    -0.1191399
C           4.7834108    -0.1142411    -0.8160014
H           4.8737510    -0.6958538    -1.7317709
C           5.8789275     0.6151092    -0.3591799
H           6.8077350     0.6168705    -0.9236715
24
312_C10H14_9-11-12-15 (135,) energy =    -389.5023551
C           2.3783543    -2.3133267    -0.0191457
H           2.0147613    -2.1263315     0.9967334
H           3.3058732    -2.8907550     0.0627950
H           1.6345958    -2.9361449    -0.5298954
C           2.6173806    -1.0063016    -0.7958166
H           1.6726301    -0.4639627    -0.8992047
H           2.9227521    -1.2640370    -1.8170673
C           5.8682182     1.3762655     0.8130596
H           6.6963849     1.9519731     1.2180108
C           4.6556225     1.3215114     1.4972458
H           4.5557971     1.8646201     2.4347443
C           3.5474075     0.6028929     1.0195091
C           2.3123722     0.5949379     1.9177255
H           2.4689107     1.3636611     2.6831692
H           2.2775184    -0.3559478     2.4702635
C           0.9307023     0.8349311     1.2843710
H           0.2020048     1.0614758     2.0712670
H           0.5542462    -0.0348803     0.7414487
H           0.9489802     1.6858662     0.5938183
C           3.6919911    -0.1151539    -0.1932547
C           4.9173231    -0.0421056    -0.8738581
H           5.0213331    -0.5862786    -1.8102814
C           5.9994780     0.6907655    -0.3913170
H           6.9312504     0.7208859    -0.9500065
24
312_C10H14_9-11-12-15 (150,) energy =    -389.5005186
C           2.3562583    -2.2627124    -0.0571033
H           2.0587560    -2.1225528     0.9880590
H           3.2866393    -2.8414366    -0.0584148
H           1.5818192    -2.8624767    -0.5498341
C           2.5516377    -0.9178833    -0.7802476
H           1.6003428    -0.3818566    -0.8243195
H           2.8259646    -1.1225585    -1.8222021
C           5.8724269     1.3205229     0.8867124
H           6.7204561     1.8531460     1.3091735
C           4.6477759     1.3226000     1.5481484
H           4.5583916     1.8678316     2.4857864
C           3.5108322     0.6626533     1.0485666
C           2.2784932     0.7226690     1.9542427
H           2.3718587     1.6376211     2.5512406
H           2.3516760    -0.0993472     2.6836029
C           0.8622678     0.6974420     1.3589849
H           0.1423458     0.9772501     2.1369039
H           0.5697449    -0.2891408     0.9932758
H           0.7532066     1.4150178     0.5377005
C           3.6426532    -0.0584313    -0.1623054
C           4.8822373    -0.0388935    -0.8239644
H           4.9739554    -0.5827427    -1.7619318
C           5.9901334     0.6370926    -0.3213800
H           6.9307202     0.6265937    -0.8657863
24
312_C10H14_9-11-12-15 (165,) energy =    -389.4987104
C           2.3828959    -2.2602138    -0.1765293
H           2.1398237    -2.2107821     0.8908474
H           3.3204211    -2.8193448    -0.2723696
H           1.5927866    -2.8318520    -0.6778948
C           2.5209620    -0.8554934    -0.7916904
H           1.5594494    -0.3412696    -0.7540152
H           2.7577532    -0.9673631    -1.8569602
C           5.8926641     1.2640381     0.9304113
H           6.7534470     1.7677641     1.3624525
C           4.6555218     1.3341549     1.5599861
H           4.5679739     1.9022523     2.4845221
C           3.4999163     0.7119362     1.0493224
C           2.2621906     0.8854953     1.9384345
H           2.2781319     1.9234542     2.2951973
H           2.4245209     0.2775064     2.8416882
C           0.8427201     0.5940869     1.4368399
H           0.1285198     0.8855395     2.2159258
H           0.6733100    -0.4643589     1.2250440
H           0.5959368     1.1706583     0.5385565
C           3.6250030    -0.0328271    -0.1456889
C           4.8823859    -0.0826955    -0.7764200
H           4.9682586    -0.6461351    -1.7034865
C           6.0079559     0.5495532    -0.2614881
H           6.9593445     0.4857458    -0.7829631
24
312_C10H14_9-11-12-15 (180,) energy =    -389.4976752
C           2.3933703    -2.2658677    -0.3220581
H           2.1720450    -2.3128059     0.7500521
H           3.3345920    -2.8030939    -0.4846897
H           1.5997013    -2.8009599    -0.8569471
C           2.5026512    -0.8103584    -0.8124007
H           1.5382122    -0.3142472    -0.7059153
H           2.7135703    -0.8249439    -1.8892027
C           5.9009868     1.2033095     0.9867459
H           6.7670906     1.6875922     1.4302682
C           4.6509021     1.3325375     1.5776480
H           4.5572462     1.9259102     2.4857467
C           3.4878192     0.7341283     1.0523214
C           2.2329135     1.0206820     1.8894949
H           2.1514051     2.1136143     1.9732725
H           2.4582629     0.6807178     2.9104840
C           0.8441671     0.4826850     1.5280908
H           0.1406470     0.7747715     2.3166274
H           0.8175387    -0.6082852     1.4572308
H           0.4643196     0.8994978     0.5899603
C           3.6168939    -0.0352305    -0.1249047