23
233_C8H11N3O_5-7-18-17 (-165,) energy =    -550.9308258
C           1.4887565    -1.0041109    -1.2668313
C           0.2003658    -0.7713482    -2.0471561
H          -0.3985038    -1.6887741    -2.0269503
H           0.4540224    -0.5696392    -3.0907745
H          -0.4104773     0.0503612    -1.6587285
N           1.5333470    -0.3955077    -0.0280335
H           0.7064032     0.0858730     0.2985143
C           2.5966916    -0.6150064     0.9214311
C           2.8078259    -2.0134728     1.4578070
H           3.8394212    -2.2927735     1.6425087
H           2.1746997    -2.7906551     1.0432806
C           2.1855835    -0.9741556     2.3429250
H           1.1203856    -1.0433249     2.5536114
H           2.7878502    -0.5479194     3.1390727
O           2.4037286    -1.6816834    -1.7024982
C           5.7892340     1.0485861     0.8345583
H           6.8251814     1.1242633     1.1365420
N           4.9869060     0.0219665     1.2836822
C           3.8067342     0.2299078     0.7323128
N           3.8172901     1.3462494    -0.0549727
H           3.0486508     1.6628299    -0.6267485
C           5.0923558     1.8783613    -0.0053364
H           5.3675756     2.7627657    -0.5596287
23
233_C8H11N3O_5-7-18-17 (-150,) energy =    -550.9291871
C           1.5449262    -1.0132965    -1.2736400
C           0.2779079    -0.8089337    -2.0958893
H          -0.2657321    -1.7584120    -2.1530436
H           0.5621951    -0.5338853    -3.1147850
H          -0.3955622    -0.0458499    -1.6917257
N           1.5226076    -0.4361887    -0.0201733
H           0.6675288     0.0035938     0.2912219
C           2.5751614    -0.6244735     0.9493656
C           2.7671119    -1.9990090     1.5451832
H           3.7928348    -2.2822681     1.7538306
H           2.1299079    -2.7855013     1.1550363
C           2.1389395    -0.9180739     2.3780261
H           1.0702319    -0.9724462     2.5760959
H           2.7276899    -0.4659040     3.1701829
O           2.5010948    -1.6432292    -1.6914789
C           5.8257339     0.9051841     0.6651305
H           6.8956471     0.8915155     0.8234795
N           5.0311377    -0.1471963     1.0641142
C           3.8015758     0.1897528     0.7276535
N           3.7743250     1.4154290     0.1202104
H           2.9601496     1.8462113    -0.2918177
C           5.0736343     1.8817705     0.0645599
H           5.3254197     2.8289075    -0.3882103
23
233_C8H11N3O_5-7-18-17 (-135,) energy =    -550.9270251
C           1.6634236    -1.1271825    -1.3685809
C           0.4954726    -0.8475609    -2.3076699
H           0.2151282    -1.7812027    -2.8019084
H           0.8229463    -0.1505392    -3.0869415
H          -0.3845367    -0.4258862    -1.8105241
N           1.5600935    -0.5413375    -0.1246698
H           0.7083525    -0.0502935     0.1084828
C           2.5549619    -0.7029004     0.9090270
C           2.6795905    -2.0531421     1.5703993
H           3.6835678    -2.3538684     1.8479862
H           2.0463449    -2.8405745     1.1763260
C           2.0282409    -0.9241827     2.3197910
H           0.9486841    -0.9491391     2.4538763
H           2.5757752    -0.4526755     3.1302359
O           2.6257139    -1.7954590    -1.7048969
C           5.8749715     0.6686718     0.5751857
H           6.9506309     0.5708367     0.6326090
N           5.0443870    -0.3844194     0.8865779
C           3.8169317     0.0667504     0.7197644
N           3.8273439     1.3715193     0.2991460
H           3.0174344     1.9149238     0.0399082
C           5.1461018     1.7661386     0.1941782
H           5.4257165     2.7558264    -0.1345876
23
233_C8H11N3O_5-7-18-17 (-120,) energy =    -550.9249810
C           1.6338551    -1.2621604    -1.3694560
C           0.5239201    -0.9233608    -2.3587093
H           0.1301660    -1.8549198    -2.7732428
H           0.9513207    -0.3502803    -3.1888199
H          -0.3000676    -0.3471201    -1.9245899
N           1.5739339    -0.5711073    -0.1779712
H           0.8146252     0.0816489    -0.0418486
C           2.5556417    -0.7009809     0.8727383
C           2.6611556    -2.0358114     1.5623194
H           3.6584149    -2.3409968     1.8581537
H           2.0308479    -2.8275629     1.1739573
C           2.0061349    -0.8893612     2.2812642
H           0.9247144    -0.9050297     2.3953244
H           2.5429238    -0.4073351     3.0930564
O           2.5067058    -2.0737587    -1.6244322
C           5.8774558     0.6406643     0.4190580
H           6.9474076     0.5106645     0.3282309
N           5.0426220    -0.4341301     0.6232603
C           3.8236563     0.0639770     0.6921537
N           3.8454584     1.4277588     0.5281136
H           3.0438512     2.0411275     0.5212983
C           5.1594344     1.8074868     0.3480020
H           5.4443102     2.8369844     0.1899976
23
233_C8H11N3O_5-7-18-17 (-105,) energy =    -550.9239995
C           1.5245143    -1.4037703    -1.3605616
C           0.5140762    -0.9798955    -2.4214107
H           0.0512353    -1.8766859    -2.8396980
H           1.0437885    -0.4708525    -3.2348159
H          -0.2680863    -0.3119959    -2.0448919
N           1.5435679    -0.5999105    -0.2380813
H           0.9593615     0.2253652    -0.2475732
C           2.5251392    -0.7046665     0.8170698
C           2.6202266    -2.0226877     1.5333674
H           3.6150023    -2.3310217     1.8350052
H           1.9872168    -2.8196860     1.1626870
C           1.9750898    -0.8574605     2.2320225
H           0.8940847    -0.8624239     2.3427104
H           2.5169443    -0.3684481     3.0366684
O           2.2457685    -2.3758172    -1.5036304
C           5.7963897     0.6998926     0.2039234
H           6.8408665     0.5928288    -0.0562027
N           4.9683324    -0.3953101     0.2954543
C           3.7827533     0.0760402     0.6290365
N           3.8204864     1.4457594     0.7508425
H           3.0564421     2.0407619     1.0368945
C           5.1094856     1.8551738     0.4810413
H           5.4020596     2.8941340     0.5128267
23
233_C8H11N3O_5-7-18-17 (-90,) energy =    -550.9238801
C           1.4565575    -1.4870299    -1.3272900
C           0.5326321    -1.0347716    -2.4531296
H           0.0051633    -1.9078827    -2.8435874
H           1.1397042    -0.6214627    -3.2669677
H          -0.1971948    -0.2779165    -2.1463668
N           1.5339164    -0.6018014    -0.2687565
H           1.0729929     0.2908180    -0.3878470
C           2.4982065    -0.6874038     0.8046792
C           2.5718536    -1.9864073     1.5579073
H           3.5590170    -2.2967364     1.8828426
H           1.9373060    -2.7881350     1.2017876
C           1.9317320    -0.7956450     2.2174610
H           0.8498785    -0.7863635     2.3141677
H           2.4683540    -0.2968004     3.0201019
O           2.0584385    -2.5461956    -1.3707328
C           5.7047985     0.7910747     0.0434901
H           6.7034951     0.7332873    -0.3682875
N           4.8671152    -0.2999471     0.0392324
C           3.7489327     0.1027398     0.6116939
N           3.8396361     1.4249726     0.9804959
H           3.1358481     1.9511144     1.4782786
C           5.0930609     1.8746172     0.6239971
H           5.4194008     2.8854743     0.8179126
23
233_C8H11N3O_5-7-18-17 (-75,) energy =    -550.9240284
C           1.4018684    -1.5557230    -1.3323726
C           0.5453754    -1.0988324    -2.5081339
H           0.0962213    -1.9772341    -2.9751660
H           1.1858493    -0.6093685    -3.2517535
H          -0.2435046    -0.3958466    -2.2189238
N           1.4988176    -0.6227726    -0.3154839
H           1.1084361     0.2911760    -0.5071019
C           2.4502845    -0.6815278     0.7698928
C           2.5105981    -1.9636413     1.5576712
H           3.4919548    -2.2712847     1.9031906
H           1.8759120    -2.7712162     1.2160627
C           1.8737931    -0.7520052     2.1805072
H           0.7916150    -0.7303289     2.2668111
H           2.4060586    -0.2450819     2.9813845
O           1.9345799    -2.6517965    -1.3035535
C           5.5861484     0.8556864    -0.1461176
H           6.5172222     0.8562097    -0.6970797
N           4.7087190    -0.1994760    -0.2296172
C           3.6969809     0.1111934     0.5588134
N           3.8947253     1.3398598     1.1430020
H           3.2723197     1.7894410     1.7987686
C           5.1071044     1.8244921     0.7015461
H           5.5021994     2.7743023     1.0294955
23
233_C8H11N3O_5-7-18-17 (-60,) energy =    -550.9242390
C           1.3987128    -1.5897369    -1.3228407
C           0.5884743    -1.1601851    -2.5402776
H           0.1369966    -2.0460219    -2.9908181
H           1.2632620    -0.7099157    -3.2782262
H          -0.1946487    -0.4322080    -2.3019158
N           1.4728403    -0.6257363    -0.3323844
H           1.1148715     0.2893959    -0.5754800
C           2.4099994    -0.6460999     0.7647069
C           2.4719025    -1.9145020     1.5811945
H           3.4507059    -2.2021688     1.9514161
H           1.8549852    -2.7377061     1.2448426
C           1.8152112    -0.6967242     2.1681039
H           0.7318169    -0.6773526     2.2336540
H           2.3263794    -0.1788874     2.9759772
O           1.9133672    -2.6919342    -1.2415293
C           5.4639726     0.9645885    -0.2827279
H           6.3102005     1.0431614    -0.9521854
N           4.5221715    -0.0247764    -0.4373658
C           3.6458068     0.1586120     0.5329925
N           3.9940682     1.2394276     1.3055834
H           3.4743558     1.5972018     2.0933916
C           5.1630835     1.7619428     0.7940766
H           5.6507471     2.6193124     1.2331346
23
233_C8H11N3O_5-7-18-17 (-45,) energy =    -550.9248211
C           1.0897303    -0.4502885    -0.8612396
C          -0.1421807     0.3960743    -1.1544417
H          -0.7473089     0.5831742    -0.2603144
H          -0.7479615    -0.1127352    -1.9058282
H           0.1746501     1.3641749    -1.5612639
N           1.6634793    -0.1872503     0.3737294
H           1.3191096     0.6403499     0.8452320
C           3.0105632    -0.5573358     0.7276640
C           3.3861766    -2.0128176     0.5546441
H           4.4043167    -2.2123965     0.2349392
H           2.6378455    -2.6567937     0.1110589
C           3.1671900    -1.4712377     1.9379302
H           2.2509992    -1.7357486     2.4563337
H           4.0292155    -1.3543629     2.5904918
O           1.5060630    -1.2915878    -1.6387392
C           5.1429229     2.1053746    -0.4365923
H           5.4219610     2.8263343    -1.1933205
N           4.0751256     1.2575066    -0.6169341
C           4.0110083     0.5217979     0.4780263
N           5.0085867     0.8652699     1.3554932
H           5.1520288     0.4832712     2.2782447
C           5.7420108     1.8818376     0.7774005
H           6.5889355     2.3315102     1.2734773
23
233_C8H11N3O_5-7-18-17 (-30,) energy =    -550.9261201
C           1.1333179    -0.4515377    -0.8817993
C          -0.0846102     0.3905749    -1.2336495
H          -0.7339615     0.5734176    -0.3703290
H          -0.6507740    -0.1153065    -2.0173202
H           0.2536855     1.3602979    -1.6185456
N           1.6356432    -0.2042634     0.3884729
H           1.2815401     0.6339580     0.8338737
C           2.9773487    -0.5487201     0.7761834
C           3.3872070    -2.0000917     0.6435260
H           4.4160803    -2.1850980     0.3491465
H           2.6633032    -2.6690619     0.1957751
C           3.1201081    -1.4355811     2.0084023
H           2.1945421    -1.7091319     2.5050801
H           3.9535737    -1.2721218     2.6878822
O           1.6013242    -1.2798330    -1.6438935
C           4.9846582     2.2217659    -0.3503837
H           5.1509606     3.0462748    -1.0304752
N           3.8539855     1.4410802    -0.4377604
C           3.9586642     0.5468272     0.5282025
N           5.1257679     0.7194439     1.2281126
H           5.4369798     0.1822416     2.0233669
C           5.7935400     1.7930885     0.6697587
H           6.7431902     2.1377719     1.0505169
23
233_C8H11N3O_5-7-18-17 (-15,) energy =    -550.9276234
C           1.1792198    -0.4599496    -0.8900196
C          -0.0352355     0.3654814    -1.2871538
H          -0.7368246     0.5035970    -0.4570696
H          -0.5424214    -0.1260545    -2.1187802
H           0.3017202     1.3556111    -1.6174074
N           1.6206067    -0.2191043     0.4048867
H           1.2581663     0.6288577     0.8253044
C           2.9557311    -0.5439565     0.8237051
C           3.3807255    -1.9938169     0.7479558
H           4.4129055    -2.1833209     0.4667265
H           2.6665350    -2.6840651     0.3164817
C           3.0899030    -1.3867135     2.0891038
H           2.1623111    -1.6581444     2.5833508
H           3.9100409    -1.1700336     2.7698730
O           1.6971238    -1.2732024    -1.6360869
C           4.8712563     2.3208166    -0.2212873
H           4.9577743     3.2343002    -0.7938323
N           3.7092357     1.5796167    -0.2310451
C           3.9334029     0.5506582     0.5646481
N           5.2032440     0.5990529     1.0809114
H           5.6258194    -0.0672771     1.7100696
C           5.8153892     1.7333290     0.5782844
H           6.8284354     2.0002753     0.8392181
23
233_C8H11N3O_5-7-18-17 (0,) energy =    -550.9287007
C           1.2007532    -0.4529456    -0.9105809
C          -0.0191064     0.3470996    -1.3409975
H          -0.7516710     0.4564824    -0.5338715
H          -0.4842511    -0.1465050    -2.1956606
H           0.3024630     1.3501188    -1.6469766
N           1.5976029    -0.2110071     0.3982366
H           1.2277148     0.6422111     0.8018083
C           2.9241455    -0.5282960     0.8468912
C           3.3396281    -1.9802529     0.8269067
H           4.3711286    -2.1963750     0.5609089
H           2.6228912    -2.6782477     0.4119703
C           3.0384921    -1.3276343     2.1441955
H           2.1063121    -1.5808061     2.6397796
H           3.8554939    -1.0800338     2.8174926
O           1.7612838    -1.2498515    -1.6439502
C           4.7999602     2.4069059    -0.0636124
H           4.8437453     3.3939192    -0.5035547
N           3.6181977     1.6976510    -0.0151299
C           3.9108118     0.5545454     0.5758817
N           5.2391555     0.5014423     0.9108501
H           5.7220431    -0.2694117     1.3482510
C           5.8203325     1.6882467     0.4993701
H           6.8705323     1.8915607     0.6452347
23
233_C8H11N3O_5-7-18-17 (15,) energy =    -550.9292037
C           1.2162146    -0.4470406    -0.9489233
C          -0.0144372     0.3180642    -1.4118371
H          -0.7651805     0.4169850    -0.6204298
H          -0.4496194    -0.1962600    -2.2701227
H           0.2854605     1.3261250    -1.7234815
N           1.5759659    -0.1924552     0.3667397
H           1.1931574     0.6611186     0.7575839
C           2.8927058    -0.5034561     0.8505120
C           3.2908300    -1.9574642     0.8843960
H           4.3230949    -2.2074658     0.6520025
H           2.5724160    -2.6571132     0.4749002
C           2.9720934    -1.2621618     2.1757125
H           2.0293135    -1.4914152     2.6630546
H           3.7835134    -0.9998861     2.8493607
O           1.8166414    -1.2298971    -1.6666715
C           4.7647146     2.4782907     0.1075871
H           4.7934245     3.5202952    -0.1807621
N           3.5700575     1.7983256     0.2151073
C           3.8894561     0.5690556     0.5750176
N           5.2457612     0.4342453     0.7112620
H           5.7483433    -0.4129735     0.9307055
C           5.8185710     1.6567734     0.4072591
H           6.8871103     1.8091151     0.4288797
23
233_C8H11N3O_5-7-18-17 (30,) energy =    -550.9294014
C           1.2643075    -0.4297051    -0.9893117
C           0.0140051     0.2828836    -1.4833452
H          -0.7573952     0.3567048    -0.7094470
H          -0.3811912    -0.2542145    -2.3471265
H           0.2777195     1.3000994    -1.7982293
N           1.5721709    -0.1791214     0.3378044
H           1.1449970     0.6480732     0.7389513
C           2.8790868    -0.4708828     0.8650923
C           3.2732187    -1.9226407     0.9490481
H           4.3130191    -2.1898149     0.7780287
H           2.5698733    -2.6306211     0.5276570
C           2.9079456    -1.1941444     2.2103841
H           1.9479818    -1.4082021     2.6705080
H           3.6994001    -0.9196053     2.9018375
O           1.9261435    -1.1712013    -1.6982614
C           4.7628478     2.5373084     0.2830528
H           4.8000854     3.6105819     0.1539946
N           3.5684884     1.8808350     0.4858130
C           3.8784250     0.6019752     0.5980958
N           5.2289236     0.4121881     0.4846962
H           5.7069968    -0.4758784     0.4510256
C           5.8075796     1.6505276     0.2753123
H           6.8723542     1.7701645     0.1437940
23
233_C8H11N3O_5-7-18-17 (45,) energy =    -550.9299008
C           1.4803522    -0.4272913    -0.9731787
C           0.1993093     0.2100162    -1.4905283
H          -0.5483281     0.3667371    -0.7064341
H          -0.2195066    -0.4255275    -2.2736569
H           0.4392265     1.1819153    -1.9381348
N           1.7172216    -0.2339482     0.3745313
H           1.2125733     0.5229941     0.8205466
C           3.0141639    -0.5065285     0.9424802
C           3.4181126    -1.9544351     1.0531102
H           4.4680074    -2.2119223     0.9418647
H           2.7387511    -2.6746268     0.6126731
C           2.9941953    -1.2147747     2.2907850
H           2.0189045    -1.4360709     2.7141686
H           3.7547214    -0.9294462     3.0113100
O           2.2318070    -1.0696233    -1.6913207
C           4.9488504     2.4909150     0.4787899
H           5.0354104     3.5687682     0.5100050
N           3.7814951     1.8559928     0.8386763
C           4.0210532     0.5646051     0.6964929
N           5.2990210     0.3465163     0.2597296
H           5.6754142    -0.5417408    -0.0374210
C           5.9048005     1.5782234     0.1108814
H           6.9245492     1.6792278    -0.2285826
23
233_C8H11N3O_5-7-18-17 (60,) energy =    -550.9314244
C           1.5926536    -0.3828343    -0.9773043
C           0.3036777     0.1879203    -1.5482399
H          -0.4993274     0.2568168    -0.8074774
H          -0.0208696    -0.4394799    -2.3811692
H           0.4989034     1.1926979    -1.9416300
N           1.7356118    -0.2510486     0.3879275
H           1.1481967     0.4282178     0.8564726
C           3.0132154    -0.5061787     1.0108687
C           3.4272975    -1.9494433     1.1594855
H           4.4855732    -2.1859917     1.0936709
H           2.7722027    -2.6884630     0.7123376
C           2.9435439    -1.1892301     2.3638489
H           1.9539906    -1.4190432     2.7483219
H           3.6663723    -0.8805924     3.1122898
O           2.4392826    -0.9244032    -1.6753705
C           5.0133059     2.4571107     0.6070489
H           5.1832212     3.5135523     0.7668645
N           3.9189010     1.8193164     1.1448146
C           4.0358888     0.5532022     0.7842131
N           5.1551983     0.3592371     0.0209104
H           5.3579767    -0.4843541    -0.4965469
C           5.7913493     1.5752238    -0.1026442
H           6.7120379     1.6901922    -0.6545380
23
233_C8H11N3O_5-7-18-17 (75,) energy =    -550.9339656
C           1.6628798    -0.3752093    -0.9974530
C           0.3762774     0.1461373    -1.6169130
H          -0.4527890     0.1990035    -0.9042332
H           0.0992485    -0.5030268    -2.4504988
H           0.5522875     1.1503151    -2.0204353
N           1.7509849    -0.2523670     0.3691222
H           1.1080175     0.3761299     0.8349277
C           3.0049083    -0.5089412     1.0425080
C           3.3999023    -1.9549880     1.2288720
H           4.4581036    -2.1957521     1.1887804
H           2.7471964    -2.6987285     0.7849524
C           2.8898493    -1.1620273     2.4018963
H           1.8882604    -1.3778470     2.7630143
H           3.5916331    -0.8385172     3.1634259
O           2.5598232    -0.8723443    -1.6702069
C           5.1122994     2.3901193     0.7315957
H           5.3898000     3.3990762     1.0065428
N           4.0940042     1.7278711     1.3781782
C           4.0526803     0.5266666     0.8272222
N           4.9888845     0.4032556    -0.1646957
H           4.9887591    -0.3492753    -0.8408826
C           5.6724488     1.5951336    -0.2400381
H           6.4785516     1.7549016    -0.9403278
23
233_C8H11N3O_5-7-18-17 (90,) energy =    -550.9366208
C           1.7052116    -0.2709134    -0.9879004
C           0.3801332     0.1497698    -1.6016284
H          -0.3810870     0.4167312    -0.8623270
H           0.0048781    -0.6699357    -2.2209027
H           0.5503706     1.0065087    -2.2621197
N           1.8030790    -0.1308145     0.3716730
H           1.1184074     0.4415852     0.8489246
C           3.0563222    -0.3710396     1.0569537
C           3.4515185    -1.8161002     1.2685528
H           4.5099152    -2.0542438     1.2264020
H           2.7966869    -2.5688998     0.8424385
C           2.9426286    -0.9978093     2.4249476
H           1.9419015    -1.2074677     2.7924741
H           3.6436861    -0.6527786     3.1772678
O           2.6215962    -0.7201055    -1.6729047
C           5.2779579     2.4543405     0.8445311
H           5.6664972     3.3930428     1.2166082
N           4.3214650     1.7508991     1.5406468
C           4.1088378     0.6564963     0.8295617
N           4.8754818     0.6414108    -0.3046841
H           4.7188566    -0.0123321    -1.0635470
C           5.6246518     1.7946013    -0.3113309
H           6.3232838     2.0244958    -1.1018768
23
233_C8H11N3O_5-7-18-17 (105,) energy =    -550.9385437
C           1.7397267    -0.2860459    -1.0058763
C           0.3915123     0.0588260    -1.6162208
H          -0.3700373     0.3297983    -0.8787688
H           0.0385689    -0.8013839    -2.1926730
H           0.5212043     0.8897299    -2.3171418
N           1.8330341    -0.1378182     0.3498170
H           1.1043858     0.3728563     0.8314733
C           3.0751837    -0.3567613     1.0644770
C           3.4696069    -1.7993049     1.3138490
H           4.5290870    -2.0347895     1.2915483
H           2.8218435    -2.5628125     0.8951875
C           2.9411817    -0.9542514     2.4414946
H           1.9351608    -1.1575155     2.7985844
H           3.6291531    -0.5853206     3.1942585
O           2.6769378    -0.6834492    -1.6973079
C           5.4618581     2.3418755     0.9824212
H           5.9627739     3.1867850     1.4359053
N           4.5184697     1.6159832     1.6736106
C           4.1375441     0.6619033     0.8410685
N           4.7906365     0.7532410    -0.3575472
H           4.5436147     0.1824937    -1.1603158
C           5.6377137     1.8334210    -0.2834242
H           6.2726994     2.1261891    -1.1062655
23
233_C8H11N3O_5-7-18-17 (120,) energy =    -550.9394103
C           1.5734011    -0.6185614    -1.1060339
C           0.2701766    -0.3824838    -1.8514539
H          -0.5827628    -0.1772696    -1.1976188
H           0.0496447    -1.2675647    -2.4557456
H           0.4024409     0.4573361    -2.5408856
N           1.5112972    -0.4931842     0.2512388
H           0.6776508    -0.0904709     0.6586794
C           2.6578274    -0.6662111     1.1226642
C           3.0698385    -2.0973646     1.4264745
H           4.1313600    -2.2909936     1.5444745
H           2.5111580    -2.8836660     0.9284624
C           2.3674870    -1.2725728     2.4703258
H           1.3313918    -1.5134122     2.6937452
H           2.9381755    -0.8761154     3.3028257
O           2.6093369    -0.9117615    -1.7040017
C           5.1162322     1.9449561     1.4785048
H           5.6426098     2.6837338     2.0679488
N           4.1279915     1.1616330     2.0312847
C           3.7126314     0.3826464     1.0470564
N           4.3934022     0.6328320    -0.1115355
H           4.1911047     0.1487409    -0.9823957
C           5.2924009     1.6398663     0.1493900
H           5.9532116     2.0330955    -0.6087075
23
233_C8H11N3O_5-7-18-17 (135,) energy =    -550.9391221
C           1.5853797    -0.6149278    -1.1302617
C           0.2684559    -0.4608764    -1.8738239
H          -0.5949543    -0.3043626    -1.2202781
H           0.1015975    -1.3608873    -2.4732367
H           0.3488010     0.3815437    -2.5680027
N           1.5170683    -0.4829344     0.2248711
H           0.6487016    -0.1551668     0.6263834
C           2.6438630    -0.6268653     1.1272409
C           3.0587231    -2.0512731     1.4732200
H           4.1183119    -2.2318899     1.6237330
H           2.5187440    -2.8523716     0.9777372
C           2.3246272    -1.2087038     2.4791966
H           1.2844938    -1.4509121     2.6827484
H           2.8755990    -0.7896953     3.3139657
O           2.6354927    -0.8440145    -1.7319942
C           5.2634160     1.8074856     1.5486436
H           5.8934815     2.4264120     2.1733057
N           4.2792797     1.0115672     2.0914745
C           3.7065127     0.4156320     1.0596546
N           4.2874350     0.7870227    -0.1196598
H           4.0351118     0.3694187    -1.0124060
C           5.2870931     1.6837286     0.1802383
H           5.8954590     2.1435802    -0.5842192
23
233_C8H11N3O_5-7-18-17 (150,) energy =    -550.9375977
C           1.6102674    -0.6105640    -1.1522073
C           0.2867564    -0.5365622    -1.8975256
H          -0.5859910    -0.4274481    -1.2467538
H           0.1739900    -1.4481292    -2.4922089
H           0.3191574     0.3049467    -2.5965320
N           1.5294118    -0.4836551     0.2026873
H           0.6321055    -0.2329466     0.5954431
C           2.6332373    -0.5993001     1.1364258
C           3.0456582    -2.0159540     1.5281985
H           4.1018590    -2.1819829     1.7136416
H           2.5241115    -2.8312558     1.0358441
C           2.2804611    -1.1545316     2.4924669
H           1.2359342    -1.3962336     2.6748026
H           2.8120335    -0.7168696     3.3304020
O           2.6730183    -0.7678571    -1.7539977
C           5.4033161     1.6502319     1.5704235
H           6.1340767     2.1404703     2.1996272
N           4.4337117     0.8316800     2.1064636
C           3.7081174     0.4318671     1.0763227
N           4.1781873     0.9455104    -0.0986964
H           3.8746902     0.6027272    -1.0072421
C           5.2699399     1.7290557     0.2062037
H           5.8199685     2.2662969    -0.5518856
23
233_C8H11N3O_5-7-18-17 (165,) energy =    -550.9348290
C           1.5046934    -0.6307488    -1.2219930
C           0.1355663    -0.5827836    -1.8840026
H          -0.0368531    -1.5387076    -2.3884948
H           0.1406821     0.1940732    -2.6544023
H          -0.6904672    -0.3954922    -1.1913181
N           1.5066530    -0.4519427     0.1306395
H           0.6290305    -0.1972711     0.5626412
C           2.6431726    -0.5685794     1.0227688
C           2.9770793    -1.9753318     1.5179373
H           4.0282517    -2.1928265     1.6750235
H           2.3807931    -2.7887438     1.1153048
C           2.3155874    -0.9889214     2.4356252
H           1.2667054    -1.1395925     2.6822454
H           2.9174850    -0.5282853     3.2116541
O           2.5271074    -0.8083751    -1.8827341
C           5.6896326     1.3298291     1.1088597
H           6.5766854     1.6637783     1.6302720
N           4.7431532     0.5500684     1.7373046
C           3.7940454     0.3614735     0.8373081
N           4.0952454     0.9704750    -0.3476527
H           3.6524683     0.7074104    -1.2235764
C           5.3193439     1.5887506    -0.1860365
H           5.7837799     2.1536222    -0.9802901
23
233_C8H11N3O_5-7-18-17 (180,) energy =    -550.9318648
C           1.4406633    -0.9743790    -1.2488923
C           0.1355883    -0.7119390    -1.9913011
H          -0.4962312    -1.6049217    -1.9255532
H           0.3594291    -0.5464293    -3.0478809
H          -0.4306776     0.1411522    -1.6030157
N           1.5328956    -0.3697560    -0.0122166
H           0.7451225     0.1737752     0.3141678
C           2.6093729    -0.6023968     0.9172666
C           2.8493905    -2.0215151     1.3938825
H           3.8873118    -2.2916723     1.5562723
H           2.2256736    -2.7932359     0.9555721
C           2.2253754    -1.0277227     2.3263010
H           1.1640259    -1.1197688     2.5451989
H           2.8358810    -0.6213820     3.1263254
O           2.3252089    -1.6759371    -1.7112802
C           5.7204457     1.2066422     0.9936052
H           6.6963769     1.3907882     1.4223110
N           4.8871494     0.2355895     1.5056281
C           3.7973763     0.2799875     0.7626970
N           3.8938098     1.2404418    -0.2026827
H           3.2103699     1.4119345    -0.9246866
C           5.1323702     1.8409780    -0.0700296
H           5.4581851     2.6352241    -0.7242862
