23
233_C8H11N3O_0-5-7-18 (-165,) energy =    -550.9315121
C           0.6345311    -1.5487132    -0.5458897
C          -0.3073148    -0.8724175    -1.5333669
H          -1.1651749    -0.4682826    -0.9845364
H          -0.6882331    -1.6273496    -2.2263317
H           0.1587703    -0.0618921    -2.1018659
N           1.8142355    -0.8966095    -0.3476511
H           1.9620857     0.0122751    -0.7746218
C           2.8166951    -1.2086760     0.6424623
C           3.3549122    -2.6181969     0.8117139
H           4.4264910    -2.7404472     0.9542635
H           2.8813990    -3.3860038     0.2097362
C           2.5084682    -2.0076490     1.9004596
H           1.5022834    -2.3917866     2.0041474
H           2.9785310    -1.6714314     2.8222651
O           0.3348743    -2.6051047     0.0067394
C           4.6905024     1.8578430     0.4496617
H           4.8377968     2.8412826     0.0253188
N           3.6401858     1.0560315     0.0548439
C           3.7493313    -0.0562154     0.7572187
N           4.8332800    -0.0038748     1.5887416
H           5.1367649    -0.7230146     2.2286495
C           5.4449891     1.2240147     1.3995712
H           6.3292495     1.5122300     1.9472398
23
233_C8H11N3O_0-5-7-18 (-150,) energy =    -550.9300500
C           0.5853020    -1.4972724    -0.4677873
C          -0.2990986    -0.8064328    -1.4985773
H          -1.0703616    -0.2330937    -0.9724589
H          -0.8073278    -1.5707993    -2.0924558
H           0.2448676    -0.1317814    -2.1665590
N           1.8577380    -1.0051089    -0.3962171
H           2.0737727    -0.1577872    -0.9120419
C           2.8498604    -1.2756617     0.6180249
C           3.4473554    -2.6658725     0.7781710
H           4.5195882    -2.7445070     0.9424298
H           3.0240503    -3.4416928     0.1476761
C           2.5556426    -2.1059537     1.8559365
H           1.5594911    -2.5191290     1.9366480
H           2.9971308    -1.7661907     2.7907192
O           0.1644693    -2.4324986     0.2075908
C           4.6655870     1.8252587     0.4150192
H           4.8249276     2.7891158    -0.0481641
N           3.6605984     0.9824945    -0.0110123
C           3.7373397    -0.0893760     0.7554858
N           4.7589295     0.0275854     1.6568254
H           5.0226709    -0.6474100     2.3593247
C           5.3609971     1.2569814     1.4479304
H           6.1965981     1.5926138     2.0430181
23
233_C8H11N3O_0-5-7-18 (-135,) energy =    -550.9298131
C           0.5522049    -0.1557117    -0.6706185
C           0.0493400    -0.6929567    -2.0068242
H           0.8515064    -0.9368685    -2.7113891
H          -0.6117780     0.0524371    -2.4538276
H          -0.5420765    -1.5994117    -1.8312504
N           1.8519835    -0.5191674    -0.3750552
H           2.2630720    -1.1980854    -1.0055720
C           2.5274025    -0.4389692     0.9046713
C           2.3391927    -1.5631209     1.9139918
H           3.2254463    -1.8680311     2.4608464
H           1.6623379    -2.3617352     1.6225479
C           1.7499105    -0.2112245     2.1874790
H           0.6808305    -0.0694665     2.0931553
H           2.2437905     0.4173690     2.9223012
O          -0.1533927     0.5362880     0.0470754
C           5.9448353     0.6804116     1.1349593
H           6.9100872     0.6849426     1.6231483
N           4.9097531    -0.0968551     1.6071732
C           3.8984565     0.1264034     0.7890452
N           4.2458050     1.0111076    -0.1954786
H           3.6226341     1.3556289    -0.9112160
C           5.5606505     1.3768131     0.0173855
H           6.0800220     2.0622993    -0.6351038
23
233_C8H11N3O_0-5-7-18 (-120,) energy =    -550.9311695
C           0.6459319    -0.0731928    -0.7084765
C           0.0336358    -0.6443997    -1.9830537
H           0.7676373    -1.1015939    -2.6551147
H          -0.4889899     0.1577480    -2.5083573
H          -0.7086399    -1.4058694    -1.7159657
N           1.8585564    -0.6353283    -0.3633431
H           2.1730059    -1.4087718    -0.9366868
C           2.5460998    -0.4965963     0.9009957
C           2.3942805    -1.6093578     1.9277578
H           3.2890305    -1.8637211     2.4864563
H           1.7570298    -2.4432021     1.6458314
C           1.7467251    -0.2799137     2.1721547
H           0.6733404    -0.1810359     2.0660387
H           2.2009027     0.3812718     2.9035436
O           0.0925714     0.8044756    -0.0642080
C           5.9138797     0.7631293     1.1369898
H           6.8738713     0.8163619     1.6326452
N           4.9063541    -0.0463554     1.6148614
C           3.8943530     0.1212889     0.7840599
N           4.2140163     1.0010354    -0.2130801
H           3.5873003     1.3049890    -0.9438236
C           5.5114218     1.4222742     0.0033870
H           6.0082104     2.1165289    -0.6573319
23
233_C8H11N3O_0-5-7-18 (-105,) energy =    -550.9331730
C           0.8469025    -0.0942311    -0.8351063
C           0.0978865    -0.7162423    -2.0050034
H           0.6516586    -1.5199626    -2.5009764
H          -0.1341089     0.0660733    -2.7312875
H          -0.8527542    -1.1248433    -1.6431200
N           1.8757116    -0.8488552    -0.3322231
H           2.0723063    -1.7419828    -0.7649715
C           2.5261804    -0.5944801     0.9354350
C           2.3312275    -1.6188892     2.0327051
H           3.1985649    -1.8327359     2.6479908
H           1.7061716    -2.4758024     1.7968202
C           1.6658391    -0.2761045     2.1407547
H           0.5967380    -0.2028848     1.9760399
H           2.0655292     0.4465667     2.8454334
O           0.5545184     1.0090209    -0.3864598
C           5.9658854     0.4946365     0.9193045
H           7.0089568     0.3670755     1.1756361
N           5.0218355    -0.4432921     1.2790405
C           3.8765536     0.0168781     0.8127670
N           4.0468992     1.2119413     0.1658991
H           3.2959502     1.7606253    -0.2330167
C           5.3863073     1.5291794     0.2266932
H           5.7876746     2.4273413    -0.2182720
23
233_C8H11N3O_0-5-7-18 (-90,) energy =    -550.9367991
C           1.0173776    -0.0703437    -0.9026085
C           0.1690203    -0.6358760    -2.0299596
H           0.5535020    -1.5791131    -2.4310422
H           0.1082476     0.1022466    -2.8328973
H          -0.8480629    -0.8080656    -1.6592278
N           1.8632284    -0.9544640    -0.2932339
H           1.9197624    -1.9021338    -0.6413223
C           2.5331296    -0.6586615     0.9564771
C           2.3676675    -1.6613924     2.0719541
H           3.2452807    -1.8435150     2.6828759
H           1.7584471    -2.5374271     1.8653146
C           1.6744072    -0.3295555     2.1614315
H           0.6012863    -0.2901666     2.0046008
H           2.0604991     0.4136159     2.8519748
O           0.9540607     1.1110120    -0.5664288
C           5.9312578     0.5437770     0.8483483
H           6.9858012     0.4559586     1.0727960
N           5.0338001    -0.4285370     1.2355316
C           3.8604697    -0.0065185     0.8032665
N           3.9639995     1.1956061     0.1583773
H           3.1676347     1.6963530    -0.2225972
C           5.2917885     1.5579791     0.1765919
H           5.6470885     2.4717985    -0.2756481
23
233_C8H11N3O_0-5-7-18 (-75,) energy =    -550.9392242
C           1.1420925    -0.0544009    -0.8086306
C           0.3360944    -0.5166025    -2.0114143
H           0.3336328    -1.6017156    -2.1518798
H           0.7368721    -0.0406994    -2.9119640
H          -0.6952727    -0.1711648    -1.8928495
N           1.7953498    -1.0323064    -0.1180651
H           1.8178922    -1.9681749    -0.5002208
C           2.5549210    -0.7802460     1.0902452
C           2.4348766    -1.8190605     2.1750410
H           3.3410859    -2.0293427     2.7324455
H           1.8076288    -2.6825532     1.9692336
C           1.7603724    -0.4859298     2.3509031
H           0.6808148    -0.4353817     2.2492355
H           2.1895041     0.2251350     3.0497899
O           1.2011897     1.1346581    -0.4930524
C           5.9555818     0.4003663     0.9136895
H           7.0143868     0.2917538     1.1070513
N           5.0575244    -0.5752648     1.2865499
C           3.8771901    -0.1231588     0.9011856
N           3.9793565     1.1002093     0.2996954
H           3.1736427     1.6095867    -0.0535899
C           5.3108103     1.4450597     0.2947670
H           5.6647228     2.3717652    -0.1317634
23
233_C8H11N3O_0-5-7-18 (-60,) energy =    -550.9389525
C           1.1822503    -0.0349068    -0.9934384
C           0.4016068    -0.5675485    -2.1842131
H           0.2636440    -1.6528735    -2.1738287
H           0.9218228    -0.2841832    -3.1052248
H          -0.5785090    -0.0827363    -2.2015491
N           1.7131565    -0.9832793    -0.1680149
H           1.7143219    -1.9380156    -0.5035346
C           2.5820558    -0.7039691     0.9629683
C           2.5702025    -1.7457333     2.0492162
H           3.5232950    -1.9398322     2.5283485
H           1.9449358    -2.6209508     1.8911996
C           1.8853419    -0.4286203     2.2900355
H           0.8000537    -0.4020573     2.2754808
H           2.3568032     0.2866023     2.9567066
O           1.2986403     1.1756001    -0.7993792
C           5.9426851     0.5552912     0.6540255
H           7.0072093     0.4705607     0.8270501
N           5.0719671    -0.4312052     1.0569035
C           3.8723769    -0.0066247     0.6937460
N           3.9388963     1.2121101     0.0803528
H           3.1175471     1.6869583    -0.2868198
C           5.2627880     1.5801387     0.0396942
H           5.5884577     2.5059229    -0.4107429
23
233_C8H11N3O_0-5-7-18 (-45,) energy =    -550.9363512
C           1.1660938    -0.0110710    -1.0795450
C           0.3657242    -0.6094139    -2.2264916
H           0.0683741    -1.6499111    -2.0649754
H           0.9625307    -0.5508611    -3.1432368
H          -0.5287380     0.0000538    -2.3794242
N           1.5774972    -0.9050413    -0.1323477
H           1.4767037    -1.8790160    -0.3896721
C           2.5330093    -0.6688478     0.9443504
C           2.5818721    -1.7612068     1.9782010
H           3.5628507    -1.9796758     2.3846959
H           1.9430518    -2.6266034     1.8168502
C           1.9212256    -0.4572359     2.3295932
H           0.8370813    -0.4276924     2.3842309
H           2.4392338     0.2192372     3.0022772
O           1.3781770     1.2006386    -1.0286509
C           5.8767457     0.6342584     0.6817780
H           6.9357599     0.5636834     0.8911988
N           5.0035581    -0.3551465     1.0688602
C           3.8107331     0.0489914     0.6579001
N           3.8857052     1.2596169     0.0328042
H           3.0744757     1.7077203    -0.3887217
C           5.2062204     1.6409060     0.0288719
H           5.5356560     2.5622182    -0.4279598
23
233_C8H11N3O_0-5-7-18 (-30,) energy =    -550.9327205
C           1.1959649     0.0265422    -1.1845251
C           0.2890215    -0.6038378    -2.2323674
H          -0.1749349    -1.5425301    -1.9143483
H           0.8742784    -0.7914370    -3.1394362
H          -0.4930068     0.1147289    -2.4895728
N           1.5056795    -0.7901292    -0.1355231
H           1.2112508    -1.7493900    -0.2642340
C           2.5175282    -0.6464958     0.9109640
C           2.5901248    -1.8201882     1.8523134
H           3.5827164    -2.0786482     2.2034146
H           1.9357094    -2.6656450     1.6480626
C           1.9629209    -0.5432672     2.3369188
H           0.8819816    -0.5048183     2.4377173
H           2.5199321     0.0675240     3.0404266
O           1.5624356     1.1955940    -1.3099623
C           5.8489835     0.6937192     0.8442209
H           6.8847280     0.6465921     1.1529686
N           4.9521673    -0.2850856     1.2013759
C           3.7987540     0.0809491     0.6599869
N           3.9203599     1.2574597    -0.0163791
H           3.1489696     1.6658497    -0.5439090
C           5.2326367     1.6558850     0.0811816
H           5.5952790     2.5527285    -0.3985270
23
233_C8H11N3O_0-5-7-18 (-15,) energy =    -550.9297528
C           1.2883528    -0.0288349    -1.2736495
C           0.1733899    -0.6388405    -2.1142673
H          -0.3595511    -1.4632080    -1.6305227
H           0.6032671    -1.0013230    -3.0539561
H          -0.5403343     0.1503873    -2.3648856
N           1.5622005    -0.7111337    -0.1274577
H           1.0226148    -1.5588570    -0.0208416
C           2.6039638    -0.6094848     0.8956997
C           2.7390367    -1.8477209     1.7529763
H           3.7463211    -2.0863561     2.0758174
H           2.1174275    -2.7044700     1.4978738
C           2.0773865    -0.6296929     2.3345837
H           0.9981356    -0.6361759     2.4656994
H           2.6323170    -0.0489471     3.0641799
O           1.8349498     1.0071915    -1.6580975
C           5.8450858     0.9157378     1.0274849
H           6.8311731     0.9734548     1.4686526
N           4.9434041    -0.0441228     1.4204211
C           3.8608692     0.1707311     0.6845820
N           4.0300204     1.2303062    -0.1505933
H           3.3211713     1.5063408    -0.8341184
C           5.3035036     1.7119074     0.0480123
H           5.6939903     2.5437803    -0.5187221
23
233_C8H11N3O_0-5-7-18 (0,) energy =    -550.9287104
C           1.3364483    -0.0959696    -1.3493704
C           0.0472944    -0.5536548    -2.0216494
H          -0.5804833    -1.2068001    -1.4077195
H           0.3054866    -1.0792188    -2.9465265
H          -0.5282104     0.3332991    -2.3009298
N           1.5639029    -0.6673528    -0.1357021
H           0.8379881    -1.3101720     0.1487419
C           2.6142661    -0.5922585     0.8799759
C           2.8318547    -1.8977019     1.6343947
H           3.8502583    -2.0993226     1.9485209
H           2.2630377    -2.7655019     1.3066167
C           2.1038309    -0.7658050     2.3042255
H           1.0275508    -0.8448341     2.4438157
H           2.6325104    -0.2077252     3.0694684
O           2.0567289     0.7189325    -1.9313059
C           5.7025515     1.1906126     1.2195481
H           6.5878728     1.4152248     1.7992844
N           4.7542763     0.3091012     1.6799851
C           3.8243111     0.2721926     0.7345417
N           4.1373095     1.0883527    -0.3046502
H           3.5339510     1.1895892    -1.1259605
C           5.3415300     1.6866851    -0.0090579
H           5.8102690     2.3879347    -0.6828149
23
233_C8H11N3O_0-5-7-18 (15,) energy =    -550.9297481
C           1.4336365    -0.2181348    -1.4358517
C           0.0335995    -0.3879306    -2.0128607
H          -0.6671962    -0.9160316    -1.3590619
H           0.1136509    -0.9283052    -2.9603652
H          -0.3715688     0.6039586    -2.2368462
N           1.5797979    -0.6946143    -0.1687358
H           0.7215435    -1.0413001     0.2364987
C           2.6542657    -0.6403704     0.8238680
C           2.9742291    -1.9878795     1.4794689
H           4.0074503    -2.1570784     1.7645731
H           2.4446574    -2.8590184     1.1017242
C           2.1975319    -0.9441812     2.2327335
H           1.1323059    -1.1039985     2.3916484
H           2.7053545    -0.3962036     3.0186526
O           2.3126821     0.2943187    -2.1320506
C           5.5612036     1.4114370     1.2589041
H           6.3242068     1.8221826     1.9065382
N           4.5498516     0.6257617     1.7576561
C           3.8053159     0.3056013     0.7076229
N           4.3035590     0.8436625    -0.4373829
H           3.8270987     0.7507760    -1.3375532
C           5.4235826     1.5675542    -0.0987306
H           5.9919729     2.1169402    -0.8341137
23
233_C8H11N3O_0-5-7-18 (30,) energy =    -550.9327201
C           1.4799759    -0.3423068    -1.3877654
C           0.0821856    -0.2174746    -1.9781220
H          -0.7090070    -0.6272545    -1.3428199
H           0.0683512    -0.7283343    -2.9440306
H          -0.1296298     0.8413982    -2.1634321
N           1.5111503    -0.6960182    -0.0698019
H           0.6034315    -0.6874226     0.3767037
C           2.6129743    -0.6740482     0.8919698
C           3.0070935    -2.0447258     1.4553296
H           4.0532775    -2.1947081     1.7028111
H           2.4965601    -2.9080985     1.0381814
C           2.2117077    -1.0777238     2.2866032
H           1.1597634    -1.2972798     2.4598590
H           2.7108851    -0.5477444     3.0898834
O           2.4678371    -0.1596456    -2.1001657
C           5.3468522     1.6114592     1.3412777
H           6.0049741     2.1691161     1.9941285
N           4.3106206     0.8605580     1.8435407
C           3.7196821     0.3247122     0.7846936
N           4.3421565     0.6939252    -0.3696939
H           3.9934150     0.4223650    -1.2888088
C           5.3786929     1.5308969    -0.0299797
H           6.0140300     1.9859475    -0.7751143
23
233_C8H11N3O_0-5-7-18 (45,) energy =    -550.9363539
C           1.4814739    -0.4202882    -1.3415600
C           0.1328553    -0.1395720    -1.9869342
H          -0.7212807    -0.3461875    -1.3350146
H           0.0494591    -0.7458920    -2.8923930
H           0.0970871     0.9122283    -2.2917317
N           1.4448351    -0.6270281     0.0082237
H           0.5693828    -0.3839820     0.4550373
C           2.5821053    -0.6889746     0.9196335
C           2.9931604    -2.0940914     1.3609256
H           4.0489817    -2.2668516     1.5449444
H           2.4583086    -2.9232842     0.9075265
C           2.2430267    -1.1888326     2.2979453
H           1.1994007    -1.4191340     2.5000003
H           2.7788469    -0.7168011     3.1136454
O           2.5040423    -0.4782776    -2.0246933
C           5.2145805     1.7291730     1.3324089
H           5.8174187     2.3688968     1.9630341
N           4.1857059     0.9781204     1.8506791
C           3.6707085     0.3280944     0.8176073
N           4.3343449     0.6265850    -0.3367365
H           4.0520839     0.2537738    -1.2410896
C           5.3185723     1.5336516    -0.0241155
H           5.9773776     1.9459944    -0.7737731
23
233_C8H11N3O_0-5-7-18 (60,) energy =    -550.9389536
C           1.4791253    -0.4964289    -1.2608565
C           0.1512896    -0.1953184    -1.9370925
H          -0.6981026    -0.1591591    -1.2484165
H          -0.0341539    -0.9620128    -2.6944165
H           0.2276434     0.7652945    -2.4575274
N           1.4522082    -0.5152339     0.1035806
H           0.6231686    -0.1480786     0.5531451
C           2.6210025    -0.6718037     0.9529686
C           3.0220980    -2.1046466     1.2823715
H           4.0827439    -2.3084555     1.3908103
H           2.4449393    -2.8941811     0.8108931
C           2.3461105    -1.2470757     2.3165201
H           1.3106419    -1.4698803     2.5616352
H           2.9356340    -0.8381231     3.1294382
O           2.4932699    -0.7203162    -1.9226054
C           5.2169754     1.8027358     1.2864716
H           5.8141546     2.4760172     1.8868004
N           4.2164778     1.0418190     1.8467347
C           3.7031553     0.3482957     0.8435015
N           4.3366406     0.6298860    -0.3334537
H           4.0675303     0.2024942    -1.2164952
C           5.3044180     1.5687797    -0.0654222
H           5.9425724     1.9731016    -0.8369918
23
233_C8H11N3O_0-5-7-18 (75,) energy =    -550.9392148
C           1.4930116    -0.8648821    -1.0897759
C           0.2317389    -0.6213144    -1.9018380
H          -0.1083082    -1.5771315    -2.3140976
H           0.4734657     0.0302146    -2.7462506
H          -0.5860690    -0.1773503    -1.3260693
N           1.3954535    -0.6186281     0.2482253
H           0.5660331    -0.1595872     0.6000051
C           2.4702253    -0.8769218     1.1855060
C           2.7522505    -2.3312609     1.5218351
H           3.7877199    -2.6047839     1.6983971
H           2.1631383    -3.0785307     0.9994085
C           2.0610042    -1.4433743     2.5203625
H           0.9987205    -1.6000143     2.6888068
H           2.6168226    -1.0824018     3.3787946
O           2.5310218    -1.2654865    -1.6177928
C           5.1297308     1.5107297     1.6494150
H           5.7049066     2.1904112     2.2637768
N           4.0660255     0.8054493     2.1680282
C           3.6024142     0.0891735     1.1591590
N           4.3237551     0.3025040     0.0177098
H           4.1224892    -0.1734289    -0.8577441
C           5.3050556     1.2184603     0.3175634
H           6.0130083     1.5671818    -0.4194399
23
233_C8H11N3O_0-5-7-18 (90,) energy =    -550.9368104
C           1.4436977    -0.9468220    -1.0941978
C           0.1541613    -0.7300878    -1.8691730
H          -0.3067770    -1.7044465    -2.0650027
H           0.3924563    -0.2808215    -2.8368334
H          -0.5720724    -0.0997595    -1.3466266
N           1.4421798    -0.5149785     0.2022714
H           0.6236094    -0.0449945     0.5646237
C           2.4850688    -0.8671591     1.1435845
C           2.7266592    -2.3382985     1.4165008
H           3.7538095    -2.6439007     1.5891379
H           2.1303184    -3.0473674     0.8515060
C           2.0441991    -1.4832847     2.4488028
H           0.9763821    -1.6218244     2.5964427
H           2.5961632    -1.1767313     3.3308040
O           2.4337108    -1.4628169    -1.6104799
C           5.1596150     1.4845533     1.7085884
H           5.7321885     2.1492748     2.3413853
N           4.0850670     0.7764404     2.2031415
C           3.6284651     0.0825402     1.1777020
N           4.3638069     0.3120004     0.0469319
H           4.1857529    -0.1494714    -0.8392495
C           5.3492391     1.2155751     0.3742278
H           6.0683392     1.5727230    -0.3477057
23
233_C8H11N3O_0-5-7-18 (105,) energy =    -550.9331730
C           1.3651913    -1.0814492    -1.1304737
C           0.0563828    -0.7779093    -1.8457576
H          -0.6312115    -1.6204700    -1.7072567
H           0.2532830    -0.6836691    -2.9159717
H          -0.4365279     0.1308078    -1.4851711
N           1.5196225    -0.4732946     0.0892675
H           0.7745184     0.1245402     0.4226719
C           2.5283295    -0.8429482     1.0592365
C           2.7630029    -2.3133399     1.3369217
H           3.7872218    -2.6126636     1.5367872
H           2.1921030    -3.0222344     0.7477252
C           2.0500290    -1.4667781     2.3529448
H           0.9777471    -1.6037110     2.4630801
H           2.5739901    -1.1633286     3.2529436
O           2.2224760    -1.8092607    -1.6194267
C           5.1768057     1.4988537     1.7789467
H           5.7297315     2.1365909     2.4553883
N           4.0968374     0.7609347     2.2142065
C           3.6641614     0.1130433     1.1493690
N           4.4216445     0.4057092     0.0466249
H           4.2908875    -0.0101583    -0.8666203
C           5.3964620     1.2971723     0.4384160
H           6.1264160     1.6940629    -0.2510748
23
233_C8H11N3O_0-5-7-18 (120,) energy =    -550.9311701
C           1.3370019    -1.3600635    -1.1238127
C           0.0983057    -0.8951054    -1.8821843
H          -0.7752503    -1.4506465    -1.5209236
H           0.2279948    -1.1323503    -2.9401511
H          -0.1063255     0.1751257    -1.7715810
N           1.6819967    -0.5537037    -0.0577873
H           1.0446825     0.2042014     0.1549521
C           2.6267695    -0.8663343     0.9911430
C           2.8452522    -2.3107515     1.4007642
H           3.8633573    -2.5709236     1.6730850
H           2.3117254    -3.0667234     0.8377011
C           2.0859165    -1.3941475     2.3118069
H           1.0083413    -1.5179604     2.3777738
H           2.5765317    -1.0246118     3.2063084
O           1.9537842    -2.3629833    -1.4483505
C           5.4571711     1.2386613     1.7258924
H           6.1914289     1.6331035     2.4153476
N           4.4865927     0.3549961     2.1451913
C           3.7671443     0.0856292     1.0718202
N           4.2325721     0.7669298    -0.0189359
H           3.8581713     0.6936002    -0.9535967
C           5.3213948     1.5124623     0.3886676
H           5.8653744     2.1536539    -0.2883352
23
233_C8H11N3O_0-5-7-18 (135,) energy =    -550.9298148
C           1.2465351    -1.4658832    -1.0868371
C           0.0637346    -0.8951139    -1.8629144
H          -0.8699737    -1.2469088    -1.4081245
H           0.1008560    -1.2795452    -2.8842686
H           0.0431167     0.1996349    -1.8865955
N           1.7689065    -0.5989378    -0.1458828
H           1.2267373     0.2436485     0.0083666
C           2.6687803    -0.9126370     0.9461240
C           2.9145335    -2.3488254     1.3705369
H           3.9306173    -2.5719871     1.6815283
H           2.4210583    -3.1210397     0.7942938
C           2.0953689    -1.4501130     2.2490514
H           1.0203194    -1.6070610     2.2729148
H           2.5385378    -1.0646689     3.1615084
O           1.6742900    -2.5886278    -1.3059407
C           5.4163433     1.2671567     1.7746452
H           6.1134017     1.6849560     2.4885176
N           4.4507449     0.3643096     2.1634253
C           3.7813536     0.0678605     1.0651584
N           4.2738234     0.7513669    -0.0130138
H           3.9353624     0.6620827    -0.9600113
C           5.3270015     1.5270238     0.4307537
H           5.8820209     2.1755930    -0.2300603
23
233_C8H11N3O_0-5-7-18 (150,) energy =    -550.9300475
C           0.7769253    -1.6596151    -0.6001198
C          -0.1362926    -0.9236001    -1.5729855
H          -1.1737895    -1.1903195    -1.3509061
H           0.0802333    -1.2740202    -2.5874739
H          -0.0319072     0.1651279    -1.5442320
N           1.6212989    -0.8502345     0.1052746
H           1.6856827     0.1265445    -0.1634297
C           2.7376309    -1.2481074     0.9304909
C           3.2027035    -2.6896489     1.0451297
H           4.2774262    -2.8571855     1.0785881
H           2.6354530    -3.4266238     0.4931503
C           2.5206796    -2.0323479     2.2167963
H           1.4992223    -2.3372714     2.4223194
H           3.0971347    -1.7442076     3.0928478
O           0.7065627    -2.8778198    -0.4618501
C           4.7567161     1.7054147     0.5402310
H           4.8904219     2.7035707     0.1468500
N           3.6029147     0.9892370     0.3002735
C           3.7642840    -0.1715024     0.9076134
N           4.9769901    -0.2285387     1.5367652
H           5.3465781    -1.0065634     2.0628541
C           5.6245322     0.9732659     1.3046425
H           6.6111053     1.1753163     1.6930600
23
233_C8H11N3O_0-5-7-18 (165,) energy =    -550.9315197
C           0.7276659    -1.6442208    -0.5057566
C          -0.1807612    -0.9634484    -1.5210723
H          -1.2197005    -1.0897851    -1.2024780
H          -0.0717526    -1.4710309    -2.4851371
H           0.0257638     0.1025066    -1.6562631
N           1.6997162    -0.8455590     0.0160116
H           1.8298770     0.0913640    -0.3516879
C           2.7815640    -1.2538024     0.8791267
C           3.2670812    -2.6934225     0.9621158
H           4.3427593    -2.8450878     1.0222086
H           2.7244527    -3.4276186     0.3813458
C           2.5337994    -2.0806816     2.1287468
H           1.5150699    -2.4178499     2.2856912
H           3.0732216    -1.8097826     3.0338291
O           0.5610046    -2.8192300    -0.1843868
C           4.8243602     1.6914612     0.5571602
H           4.9932388     2.6740825     0.1390063
N           3.6917408     0.9663274     0.2515915
C           3.7984505    -0.1694837     0.9156143
N           4.9562840    -0.2035353     1.6418508
H           5.2751425    -0.9572087     2.2326514
C           5.6241082     0.9886297     1.4172061
H           6.5751809     1.2063286     1.8787052
23
233_C8H11N3O_0-5-7-18 (180,) energy =    -550.9321534
C           0.6920743    -1.6138410    -0.4788071
C          -0.2298383    -0.9485753    -1.4919896
H          -1.2409658    -0.9134584    -1.0751876
H          -0.2703919    -1.5704899    -2.3920282
H           0.0768010     0.0634954    -1.7728255
N           1.7796720    -0.8770240    -0.1255833
H           1.9306883     0.0415166    -0.5288108
C           2.8168733    -1.2609500     0.7994565
C           3.3109775    -2.6943282     0.9116165
H           4.3834306    -2.8468847     1.0124784
H           2.7921096    -3.4348220     0.3151914
C           2.5265817    -2.0815708     2.0451387
H           1.5094024    -2.4324860     2.1692318
H           3.0337706    -1.7920704     2.9631052
O           0.4513634    -2.7341500    -0.0318370
C           4.8241263     1.7166105     0.5678125
H           4.9996022     2.6986565     0.1510293
N           3.7220505     0.9704523     0.2063056
C           3.8085882    -0.1568127     0.8875453
N           4.9262856    -0.1670442     1.6746671
H           5.2222842    -0.9098258     2.2906268
C           5.5869476     1.0337374     1.4761952
H           6.5063717     1.2716089     1.9890222
