27
379_C13H12O2_3-0-22-19 (-165,) energy =    -653.0361843
C           1.5613228    -1.5402001     0.1822300
H           2.2936049    -2.3593606     0.2750061
H           1.3797697    -1.1526126     1.2012266
O           2.1017624    -0.5021269    -0.6157908
C           5.7129553     1.3488105     0.3361755
H           6.6507950     1.8481309     0.5607946
C           5.2285861     0.3490308     1.1754417
H           5.7885141     0.0629054     2.0619549
C           4.0215096    -0.3016827     0.8972662
H           3.6672797    -1.0761541     1.5677760
C           3.2940014     0.0591348    -0.2420192
C           3.7761501     1.0657158    -1.0908688
H           3.1921610     1.3286324    -1.9674116
C           4.9767988     1.7029008    -0.8000843
H           5.3409956     2.4815996    -1.4649471
C          -2.0924207    -3.0349286    -1.5747918
H          -3.0104429    -3.4223427    -2.0083285
C          -1.7823963    -3.3292317    -0.2502704
H          -2.4362716    -3.9375327     0.3667601
C          -0.6038374    -2.8367259     0.3163543
O          -0.3654296    -3.1881452     1.6226200
H           0.4149275    -2.7246883     1.9592424
C           0.2754042    -2.0404195    -0.4387358
C          -0.0569803    -1.7558314    -1.7675706
H           0.6185739    -1.1363435    -2.3465358
C          -1.2308029    -2.2446332    -2.3384387
H          -1.4697302    -2.0094362    -3.3714072
27
379_C13H12O2_3-0-22-19 (-150,) energy =    -653.0359263
C           1.6148940    -1.6219433     0.1621087
H           2.3762216    -2.4167837     0.1182497
H           1.5015291    -1.3466217     1.2251433
O           2.0694776    -0.4846157    -0.5564971
C           5.6978621     1.3675063     0.3286373
H           6.6377582     1.8698096     0.5375464
C           5.3022522     0.2690055     1.0870211
H           5.9342678    -0.0920574     1.8941978
C           4.0933514    -0.3864446     0.8280761
H           3.8100774    -1.2389514     1.4346137
C           3.2731921     0.0700656    -0.2097369
C           3.6658394     1.1768511    -0.9762801
H           3.0105687     1.5129498    -1.7738625
C           4.8693869     1.8173791    -0.7056889
H           5.1634649     2.6740964    -1.3062312
C          -2.0865634    -3.0211334    -1.5777404
H          -3.0145621    -3.3811516    -2.0137299
C          -1.8571532    -3.1906762    -0.2168406
H          -2.5848847    -3.6743169     0.4271516
C          -0.6660664    -2.7329580     0.3573641
O          -0.5250923    -2.9636879     1.7025789
H           0.2831367    -2.5443583     2.0317320
C           0.3064926    -2.0938519    -0.4324288
C           0.0526867    -1.9348143    -1.8010909
H           0.7981594    -1.4314455    -2.4075943
C          -1.1304362    -2.3891953    -2.3772732
H          -1.3053925    -2.2504795    -3.4400363
27
379_C13H12O2_3-0-22-19 (-135,) energy =    -653.0358095
C           1.6591435    -1.6887388     0.1330889
H           2.4348548    -2.4455253    -0.0592102
H           1.6256025    -1.5464146     1.2255576
O           2.0315137    -0.4599199    -0.4820173
C           5.6854399     1.3769901     0.3272434
H           6.6299646     1.8772986     0.5194852
C           5.3658027     0.1959830     0.9916968
H           6.0622479    -0.2318841     1.7081396
C           4.1518349    -0.4580584     0.7534162
H           3.9285006    -1.3758109     1.2853338
C           3.2488800     0.0843223    -0.1680176
C           3.5649939     1.2745033    -0.8395772
H           2.8464145     1.6754991    -1.5476152
C           4.7746252     1.9122670    -0.5907691
H           5.0089653     2.8338560    -1.1170099
C          -2.0803064    -3.0060661    -1.5855976
H          -3.0149261    -3.3459741    -2.0236232
C          -1.9151075    -3.0466152    -0.2067418
H          -2.7006242    -3.4078306     0.4494896
C          -0.7167453    -2.6119009     0.3744714
O          -0.6556902    -2.7033673     1.7406250
H           0.1630920    -2.3012147     2.0656743
C           0.3301128    -2.1320599    -0.4327729
C           0.1377048    -2.1011521    -1.8218562
H           0.9410906    -1.7180846    -2.4440788
C          -1.0512336    -2.5282520    -2.4031447
H          -1.1756332    -2.4902211    -3.4812329
27
379_C13H12O2_3-0-22-19 (-120,) energy =    -653.0361532
C           1.7008895    -1.7494248     0.0664761
H           2.4713417    -2.4594391    -0.2673075
H           1.7426346    -1.7460772     1.1666881
O           2.0105355    -0.4478158    -0.4300746
C           5.6685555     1.3854208     0.3713755
H           6.6126647     1.8862754     0.5643373
C           5.4184023     0.1238456     0.9045401
H           6.1693064    -0.3670290     1.5182596
C           4.2058503    -0.5320441     0.6638300
H           4.0380320    -1.5139203     1.0915163
C           3.2327491     0.0908961    -0.1262935
C           3.4791433     1.3625068    -0.6652352
H           2.7076509     1.8245056    -1.2733895
C           4.6884380     2.0006787    -0.4159343
H           4.8681411     2.9855333    -0.8390345
C          -2.0842690    -3.0305443    -1.5675451
H          -3.0288513    -3.3690072    -1.9848752
C          -1.9496424    -2.9096835    -0.1901408
H          -2.7691499    -3.1394742     0.4834321
C          -0.7402051    -2.4712246     0.3656498
O          -0.7135643    -2.3835745     1.7325921
H           0.0841068    -1.9144653     2.0186379
C           0.3518102    -2.1652545    -0.4656264
C           0.1869985    -2.2918351    -1.8531376
H           1.0281618    -2.0446202    -2.4957226
C          -1.0141088    -2.7142178    -2.4112721
H          -1.1158737    -2.8021136    -3.4887716
27
379_C13H12O2_3-0-22-19 (-105,) energy =    -653.0371522
C           1.1762672    -0.6053584    -0.5747639
H           0.8435856     0.2287394     0.0581173
H           1.4497905    -0.1702968    -1.5477021
O           2.3176662    -1.2273204     0.0238591
C           5.7885479     0.9266176     0.8604710
H           6.7047797     1.4630888     1.0888871
C           4.7164718     1.5850634     0.2640841
H           4.7918615     2.6424816     0.0238937
C           3.5304927     0.9052838    -0.0355164
H           2.7112459     1.4430272    -0.4990201
C           3.4227005    -0.4565542     0.2701954
C           4.5001016    -1.1248955     0.8712815
H           4.3913418    -2.1808515     1.0986119
C           5.6711694    -0.4350839     1.1621492
H           6.4988902    -0.9634065     1.6280410
C          -2.0996434    -3.3947346    -0.8782214
H          -2.9410058    -4.0780615    -0.9566978
C          -1.3665247    -3.0797169    -2.0167574
H          -1.6083587    -3.5068427    -2.9848134
C          -0.2760110    -2.2058466    -1.9302545
O           0.3964039    -1.9639742    -3.0994703
H           1.2610571    -1.5729303    -2.9050381
C           0.0704125    -1.6202508    -0.6994974
C          -0.6813829    -1.9614160     0.4337296
H          -0.4114894    -1.5122579     1.3866894
C          -1.7541320    -2.8438188     0.3600911
H          -2.3212835    -3.0921612     1.2521226
27
379_C13H12O2_3-0-22-19 (-90,) energy =    -653.0390601
C           1.1242384    -0.5891243    -0.4327171
H           0.8211278     0.1626381     0.3075063
H           1.3070926    -0.0641892    -1.3812950
O           2.3294155    -1.2332849     0.0093220
C           5.8152019     0.9336614     0.7490007
H           6.7362262     1.4733128     0.9488444
C           4.6802195     1.6134941     0.3148450
H           4.7110667     2.6907976     0.1737266
C           3.4873733     0.9300525     0.0538305
H           2.6184351     1.4837727    -0.2828811
C           3.4374103    -0.4572988     0.2323403
C           4.5776144    -1.1473742     0.6702654
H           4.5124296    -2.2229084     0.8031171
C           5.7548352    -0.4534184     0.9251696
H           6.6318051    -0.9985279     1.2643636
C          -2.1291392    -3.3586308    -0.9627319
H          -2.9712605    -4.0283335    -1.1157000
C          -1.2295128    -3.1412911    -2.0030247
H          -1.3418021    -3.6329189    -2.9641361
C          -0.1400114    -2.2872346    -1.8111943
O           0.7251236    -2.1289126    -2.8632721
H           1.5913094    -1.8575652    -2.5216232
C           0.0426443    -1.6227650    -0.5852328
C          -0.8709628    -1.8656264     0.4473701
H          -0.7353865    -1.3503581     1.3956043
C          -1.9474482    -2.7325288     0.2737598
H          -2.6450352    -2.9076827     1.0872462
27
379_C13H12O2_3-0-22-19 (-75,) energy =    -653.0420067
C           1.0653068    -0.5715211    -0.3192337
H           0.8085990     0.1014608     0.5082132
H           1.1750326     0.0329697    -1.2308293
O           2.3134588    -1.2317484    -0.0337933
C           5.8186742     0.9225102     0.6557998
H           6.7449274     1.4588164     0.8396855
C           4.6447565     1.6185545     0.3789261
H           4.6504271     2.7048828     0.3451458
C           3.4448851     0.9395918     0.1399705
H           2.5451577     1.5047116    -0.0744294
C           3.4288217    -0.4586214     0.1811101
C           4.6069122    -1.1657605     0.4603104
H           4.5668113    -2.2503334     0.4901302
C           5.7910013    -0.4759189     0.6952325
H           6.6984938    -1.0334660     0.9113302
C          -2.1358451    -3.3439254    -1.0404235
H          -2.9640389    -4.0133457    -1.2574474
C          -1.0961290    -3.2222276    -1.9609876
H          -1.0867851    -3.7870106    -2.8878507
C          -0.0273178    -2.3681857    -1.6830912
O           0.9924185    -2.2877157    -2.5936308
H           1.7994609    -2.0208251    -2.1206920
C           0.0004011    -1.6163760    -0.4943455
C          -1.0483937    -1.7629361     0.4182041
H          -1.0340174    -1.1779641     1.3351352
C          -2.1117612    -2.6273673     0.1588533
H          -2.9187165    -2.7314311     0.8779427
27
379_C13H12O2_3-0-22-19 (-60,) energy =    -653.0444991
C           1.0465475    -0.5539913    -0.2406811
H           0.8308491     0.0346614     0.6589434
H           1.1063766     0.1347194    -1.0963155
O           2.3183202    -1.2179445    -0.0926244
C           5.8340421     0.9163044     0.6073349
H           6.7630787     1.4479034     0.7906320
C           4.6377309     1.6159959     0.4708614
H           4.6286340     2.7000927     0.5468266
C           3.4339399     0.9434059     0.2340203
H           2.5162713     1.5104728     0.1295622
C           3.4385080    -0.4512852     0.1345434
C           4.6379002    -1.1629283     0.2719398
H           4.6132264    -2.2457622     0.1957675
C           5.8257876    -0.4791067     0.5064767
H           6.7509365    -1.0393223     0.6121461
C          -2.1086357    -3.3517141    -1.0755360
H          -2.9187648    -4.0339729    -1.3193051
C          -0.9727918    -3.3221183    -1.8827521
H          -0.8729776    -3.9700903    -2.7478697
C           0.0748111    -2.4510365    -1.5741987
O           1.1778051    -2.4525062    -2.3797650
H           1.9250897    -2.1004319    -1.8609685
C          -0.0160283    -1.5942457    -0.4601970
C          -1.1571883    -1.6534809     0.3444675
H          -1.2276355    -0.9947214     1.2073552
C          -2.2036762    -2.5267824     0.0477925
H          -3.0840770    -2.5594512     0.6825112
27
379_C13H12O2_3-0-22-19 (-45,) energy =    -653.0449478
C           1.0474834    -0.5569024    -0.1819777
H           0.8639050    -0.0712012     0.7838470
H           1.0631387     0.2249437    -0.9569129
O           2.3352190    -1.2006549    -0.1627000
C           5.8416660     0.9279299     0.5952904
H           6.7686525     1.4588001     0.7905053
C           4.6275407     1.6100201     0.5902357
H           4.6023336     2.6794877     0.7815654
C           3.4261002     0.9383073     0.3396837
H           2.4942094     1.4913971     0.3394395
C           3.4523172    -0.4372683     0.0923605
C           4.6689895    -1.1318648     0.0972841
H           4.6616473    -2.2012792    -0.0908890
C           5.8542436    -0.4488173     0.3473799
H           6.7934133    -0.9953704     0.3497420
C          -2.1178819    -3.3400468    -1.0860698
H          -2.9253957    -4.0243886    -1.3326151
C          -0.9180382    -3.4154463    -1.7879885
H          -0.7664093    -4.1462543    -2.5762399
C           0.1328384    -2.5432527    -1.4829800
O           1.2783917    -2.6559657    -2.2125373
H           1.9895352    -2.2012833    -1.7219635
C          -0.0229107    -1.5798543    -0.4656644
C          -1.2296526    -1.5395988     0.2412078
H          -1.3448296    -0.8076533     1.0380856
C          -2.2802111    -2.4040352    -0.0618269
H          -3.2096004    -2.3514925     0.4971868
27
379_C13H12O2_3-0-22-19 (-30,) energy =    -653.0438734
C           1.0528916    -0.5937591    -0.1223473
H           0.9039380    -0.2251002     0.9002495
H           1.0154492     0.2745603    -0.7987176
O           2.3530259    -1.1927051    -0.2288708
C           5.8351794     0.9558886     0.5778951
H           6.7560420     1.4937565     0.7825697
C           4.6042651     1.5945095     0.7054672
H           4.5594529     2.6364714     1.0108470
C           3.4102351     0.9137621     0.4443946
H           2.4648661     1.4326824     0.5498179
C           3.4617410    -0.4264280     0.0507160
C           4.6951595    -1.0777770    -0.0779256
H           4.7090733    -2.1214035    -0.3778030
C           5.8726908    -0.3860771     0.1847005
H           6.8252334    -0.8988221     0.0825890
C          -2.1569918    -3.3149776    -1.1056094
H          -2.9751484    -3.9848171    -1.3566398
C          -0.9107451    -3.5058564    -1.6909701
H          -0.7320203    -4.3118172    -2.3959758
C           0.1605679    -2.6552501    -1.3843366
O           1.3381037    -2.9004628    -2.0217739
H           2.0286241    -2.3589943    -1.5946509
C          -0.0250962    -1.5961304    -0.4720017
C          -1.2849301    -1.4397248     0.1211124
H          -1.4261281    -0.6364564     0.8420604
C          -2.3528458    -2.2765455    -0.1910708
H          -3.3194808    -2.1280790     0.2807196
27
379_C13H12O2_3-0-22-19 (-15,) energy =    -653.0425429
C           1.0719465    -0.6396327    -0.0628579
H           0.9695156    -0.3924426     1.0023592
H           0.9706178     0.2979371    -0.6308455
O           2.3794443    -1.1742323    -0.2966032
C           5.8323815     0.9966244     0.5704171
H           6.7457258     1.5421768     0.7879222
C           4.5906827     1.5746025     0.8222431
H           4.5298241     2.5765741     1.2384836
C           3.4061319     0.8833175     0.5464626
H           2.4520838     1.3543823     0.7510379
C           3.4781863    -0.4056369     0.0106656
C           4.7226064    -0.9959399    -0.2441027
H           4.7545763    -2.0006683    -0.6550090
C           5.8904643    -0.2944831     0.0353946
H           6.8515546    -0.7599241    -0.1653320
C          -2.1807797    -3.2837082    -1.1387168
H          -3.0123061    -3.9317768    -1.4025209
C          -0.9048298    -3.5821576    -1.5976746
H          -0.7141890    -4.4522765    -2.2183016
C           0.1881009    -2.7627505    -1.2736852
O           1.3909164    -3.1357120    -1.7892027
H           2.0710387    -2.5350081    -1.4318648
C          -0.0100021    -1.6223620    -0.4691055
C          -1.3066193    -1.3518533    -0.0072543
H          -1.4621126    -0.4803664     0.6270324
C          -2.3909407    -2.1584460    -0.3357762
H          -3.3826521    -1.9190404     0.0359886
27
379_C13H12O2_3-0-22-19 (0,) energy =    -653.0419526
C           1.0757455    -0.6827333    -0.0061358
H           1.0341232    -0.5510486     1.0848831
H           0.9137422     0.3042487    -0.4632691
O           2.3793603    -1.1489750    -0.3654580
C           5.8216342     1.0175216     0.5530564
H           6.7320780     1.5635909     0.7811624
C           4.5820726     1.5251621     0.9338337
H           4.5200062     2.4725880     1.4624371
C           3.4014384     0.8320268     0.6463227
H           2.4490196     1.2475577     0.9531503
C           3.4751066    -0.3871640    -0.0334234
C           4.7173466    -0.9057211    -0.4204473
H           4.7519335    -1.8545230    -0.9476443
C           5.8812713    -0.2035746    -0.1265391
H           6.8406054    -0.6132725    -0.4305583
C          -2.2030363    -3.2581626    -1.1721923
H          -3.0423787    -3.8881732    -1.4542778
C          -0.9109422    -3.6517979    -1.4909799
H          -0.7144815    -4.5798318    -2.0190086
C           0.1940911    -2.8589312    -1.1398189
O           1.4133843    -3.3415362    -1.5026332
H           2.0901617    -2.7065129    -1.2040188
C          -0.0102503    -1.6453493    -0.4533098
C          -1.3267983    -1.2713694    -0.1433895
H          -1.4893235    -0.3340953     0.3872169
C          -2.4204212    -2.0560844    -0.4911579
H          -3.4261758    -1.7363695    -0.2356800
27
379_C13H12O2_3-0-22-19 (15,) energy =    -653.0425429
C           1.0814321    -0.7053646     0.0560877
H           1.1124232    -0.6907946     1.1564223
H           0.8677809     0.3177893    -0.2812460
O           2.3688928    -1.1000328    -0.4304210
C           5.8294232     1.0175294     0.5325855
H           6.7442345     1.5524777     0.7693980
C           4.6075263     1.4561495     1.0364431
H           4.5636903     2.3376981     1.6703675
C           3.4213343     0.7764303     0.7397842
H           2.4829371     1.1372208     1.1437653
C           3.4715084    -0.3583167    -0.0747714
C           4.6956499    -0.8057991    -0.5877927
H           4.7099869    -1.6862557    -1.2233530
C           5.8655491    -0.1186218    -0.2825529
H           6.8108314    -0.4726449    -0.6847133
C          -2.1869318    -3.2402132    -1.2174233
H          -3.0220771    -3.8636916    -1.5253798
C          -0.8876688    -3.7010533    -1.3826835
H          -0.6822165    -4.6757099    -1.8144864
C           0.2104785    -2.9178927    -0.9932368
O           1.4392506    -3.4709292    -1.1827413
H           2.1096797    -2.8035487    -0.9456022
C          -0.0067413    -1.6444945    -0.4290082
C          -1.3286549    -1.1974040    -0.2863637
H          -1.5010881    -0.2081588     0.1351235
C          -2.4168008    -1.9770761    -0.6636196
H          -3.4279113    -1.6021450    -0.5367626
27
379_C13H12O2_3-0-22-19 (30,) energy =    -653.0438734
C           1.0849923    -0.7273246     0.1283689
H           1.1892202    -0.8363738     1.2192905
H           0.8360838     0.3210276    -0.0784990
O           2.3455975    -1.0473638    -0.4791952
C           5.8402547     1.0093298     0.4959591
H           6.7635095     1.5296582     0.7326948
C           4.6472483     1.3769071     1.1131024
H           4.6347328     2.1879386     1.8363015
C           3.4507298     0.7147164     0.8178480
H           2.5353852     1.0186946     1.3116590
C           3.4609721    -0.3296125    -0.1111294
C           4.6557486    -0.7047534    -0.7387349
H           4.6369732    -1.5140614    -1.4625787
C           5.8363998    -0.0364029    -0.4331733
H           6.7587769    -0.3336943    -0.9246047
C          -2.1540089    -3.2302541    -1.2575110
H          -2.9781172    -3.8557393    -1.5902470
C          -0.8606469    -3.7395876    -1.2634168
H          -0.6508308    -4.7519090    -1.5946589
C           0.2191988    -2.9530576    -0.8384742
O           1.4472480    -3.5400774    -0.8550284
H           2.1144067    -2.8436381    -0.7056177
C          -0.0062909    -1.6313793    -0.4014630
C          -1.3163415    -1.1348179    -0.4270445
H          -1.4913881    -0.1079885    -0.1109130
C          -2.3911231    -1.9183760    -0.8382229
H          -3.3963773    -1.5079558    -0.8426833
27
379_C13H12O2_3-0-22-19 (45,) energy =    -653.0449481
C           1.0869800    -0.7559379     0.1979796
H           1.2504146    -0.9897249     1.2612905
H           0.8184764     0.3045934     0.1228804
O           2.3168582    -0.9952794    -0.5115241
C           5.8406724     1.0105756     0.4679180
H           6.7706458     1.5196657     0.7029140
C           4.6829315     1.2919034     1.1889445
H           4.7050024     2.0235067     1.9922488
C           3.4782696     0.6430236     0.8970361
H           2.5910082     0.8778961     1.4731900
C           3.4436531    -0.2995000    -0.1347182
C           4.6031105    -0.5874661    -0.8664696
H           4.5481782    -1.3185786    -1.6674678
C           5.7925146     0.0661032    -0.5629792
H           6.6870524    -0.1629488    -1.1357903
C          -2.1198662    -3.2228883    -1.2898734
H          -2.9344502    -3.8515682    -1.6397640
C          -0.8506730    -3.7719732    -1.1294711
H          -0.6515788    -4.8161263    -1.3497712
C           0.2095197    -2.9762979    -0.6813337
O           1.4256066    -3.5729062    -0.5313078
H           2.0998492    -2.8679124    -0.4924440
C          -0.0062248    -1.6150861    -0.3845354
C          -1.2850506    -1.0807678    -0.5764254
H          -1.4505380    -0.0263299    -0.3646193
C          -2.3444479    -1.8708982    -1.0192297
H          -3.3298080    -1.4359239    -1.1566270
27
379_C13H12O2_3-0-22-19 (60,) energy =    -653.0444992
C           1.1016636    -0.8044348     0.2311300
H           1.3101795    -1.1529738     1.2534059
H           0.8174977     0.2534673     0.2807528
O           2.2995586    -0.9484307    -0.5591183
C           5.8369141     1.0205277     0.4485297
H           6.7697199     1.5221398     0.6884504
C           4.7146226     1.1985374     1.2535973
H           4.7676236     1.8414982     2.1281890
C           3.5069147     0.5578326     0.9560767
H           2.6479696     0.7107799     1.5990491
C           3.4318897    -0.2712875    -0.1673100
C           4.5563294    -0.4547103    -0.9833133
H           4.4700082    -1.0994538    -1.8526791
C           5.7492998     0.1889834    -0.6731989
H           6.6159432     0.0412194    -1.3119504
C          -2.1056086    -3.2175387    -1.3081816
H          -2.9231046    -3.8426860    -1.6576021
C          -0.8806423    -3.8045842    -0.9960180
H          -0.7191247    -4.8729571    -1.0997261
C           0.1765785    -3.0078083    -0.5500641
O           1.3668241    -3.6121099    -0.2608824
H           2.0668149    -2.9359326    -0.3266699
C           0.0075012    -1.6175340    -0.4021756
C          -1.2243696    -1.0488390    -0.7373403
H          -1.3558705     0.0254137    -0.6269307
C          -2.2820859    -1.8367178    -1.1915294
H          -3.2333137    -1.3793182    -1.4464726
27
379_C13H12O2_3-0-22-19 (75,) energy =    -653.0420064
C           1.1296974    -0.8784111     0.2549228
H           1.3891970    -1.3158705     1.2294820
H           0.8191512     0.1609185     0.4187280
O           2.2876440    -0.9063298    -0.6015744
C           5.8169199     1.0638263     0.4302368
H           6.7471146     1.5683030     0.6744156
C           4.7334592     1.1229724     1.3030815
H           4.8143745     1.6755846     2.2354730
C           3.5295587     0.4772987     1.0005739
H           2.7013727     0.5375959     1.6972276
C           3.4171315    -0.2364798    -0.1972465
C           4.5036744    -0.2993536    -1.0811964
H           4.3892629    -0.8566902    -2.0059026
C           5.6931335     0.3476734    -0.7654846
H           6.5291843     0.2933083    -1.4577022
C          -2.1352771    -3.1852562    -1.3167834
H          -2.9729799    -3.7824613    -1.6670914
C          -0.9857173    -3.8251422    -0.8560152
H          -0.9006440    -4.9071853    -0.8462099
C           0.0951373    -3.0617952    -0.4110666
O           1.2209938    -3.7166343     0.0120363
H           1.9804191    -3.1208845    -0.1086610
C           0.0274293    -1.6566283    -0.4051943
C          -1.1318037    -1.0373993    -0.8816021
H          -1.1908961     0.0486872    -0.8719954
C          -2.2102080    -1.7903004    -1.3457097
H          -3.1036871    -1.2950721    -1.7138708
27
379_C13H12O2_3-0-22-19 (90,) energy =    -653.0390601
C           1.1938079    -0.9837300     0.2965862
H           1.5257555    -1.4879035     1.2155179
H           0.8518099     0.0210420     0.5766647
O           2.2911219    -0.8737599    -0.6235078
C           5.7939627     1.1490022     0.3922345
H           6.7167965     1.6695579     0.6306601
C           4.7669923     1.0704931     1.3292595
H           4.8847106     1.5315026     2.3065324
C           3.5730492     0.4027750     1.0347080
H           2.7893976     0.3569751     1.7822543
C           3.4117290    -0.1942825    -0.2209163
C           4.4427297    -0.1177285    -1.1691903
H           4.2921114    -0.5870467    -2.1365203
C           5.6226156     0.5494255    -0.8606920
H           6.4143708     0.6026476    -1.6033652
C          -2.1447894    -3.1365781    -1.3621402
H          -3.0039144    -3.6821860    -1.7432908
C          -1.1119542    -3.8341027    -0.7412109
H          -1.1375791    -4.9140752    -0.6360767
C          -0.0003341    -3.1404037    -0.2551296
O           0.9958051    -3.8817383     0.3265899
H           1.8293061    -3.3889400     0.2713543
C           0.0736994    -1.7401664    -0.3627365
C          -0.9737962    -1.0637377    -0.9991803
H          -0.9215488     0.0196573    -1.0799873
C          -2.0756871    -1.7479853    -1.5072921
H          -2.8779944    -1.2050716    -1.9978343
27
379_C13H12O2_3-0-22-19 (105,) energy =    -653.0371522
C           1.2620143    -1.1050088     0.3506930
H           1.6795730    -1.6736016     1.1951236
H           0.9105072    -0.1485971     0.7613765
O           2.2792103    -0.8560206    -0.6245721
C           5.7587242     1.2314787     0.3355510
H           6.6741795     1.7717769     0.5579803
C           4.8116033     1.0098873     1.3317568
H           4.9846091     1.3780679     2.3397362
C           3.6280451     0.3150438     1.0582868
H           2.9074858     0.1577374     1.8527757
C           3.3949942    -0.1629428    -0.2366711
C           4.3462384     0.0576222    -1.2442566
H           4.1416631    -0.3229433    -2.2401804
C           5.5167370     0.7495140    -0.9560264
H           6.2460347     0.9144510    -1.7448359
C          -2.1307974    -3.0725125    -1.4447407
H          -3.0003423    -3.5597347    -1.8777825
C          -1.2454117    -3.8138263    -0.6704894
H          -1.3962537    -4.8739506    -0.4932510
C          -0.1175631    -3.2005723    -0.1115652
O           0.7067717    -4.0110499     0.6241036
H           1.5645251    -3.5786877     0.7493057
C           0.1150283    -1.8273232    -0.3059936
C          -0.7899172    -1.1053583    -1.0970081
H          -0.6088816    -0.0442045    -1.2516590
C          -1.9019963    -1.7115278    -1.6719903
H          -2.5885703    -1.1308937    -2.2806784
27
379_C13H12O2_3-0-22-19 (120,) energy =    -653.0361532
C           1.3347722    -1.2193120     0.3768679
H           1.8306998    -1.8560695     1.1257579
H           0.9962039    -0.3215268     0.9140288
O           2.2731178    -0.8417354    -0.6299418
C           5.7270916     1.3030785     0.2940993
H           6.6340482     1.8615263     0.5062247
C           4.8639077     0.9430667     1.3254620
H           5.0945902     1.2201904     2.3508670
C           3.6923139     0.2231726     1.0655600
H           3.0383929    -0.0437593     1.8879356
C           3.3853901    -0.1374327    -0.2516394
C           4.2520165     0.2220448    -1.2946674
H           3.9918227    -0.0708365    -2.3070972
C           5.4120981     0.9363563    -1.0194240
H           6.0757644     1.2094724    -1.8356351
C          -2.1090073    -3.0260988    -1.4977523
H          -2.9868990    -3.4689873    -1.9604629
C          -1.3601082    -3.7740109    -0.5978815
H          -1.6263965    -4.7962056    -0.3482748
C          -0.2228198    -3.2209760     0.0059348
O           0.4459018    -4.0427690     0.8744009
H           1.3001954    -3.6513464     1.1091944
C           0.1605088    -1.8991989    -0.2825308
C          -0.6112881    -1.1681703    -1.1981225
H          -0.3080802    -0.1500500    -1.4284889
C          -1.7334331    -1.7151205    -1.8098767
H          -2.3125141    -1.1280724    -2.5163783
27
379_C13H12O2_3-0-22-19 (135,) energy =    -653.0358091
C           1.3895390    -1.3006520     0.3682289
H           1.9550829    -2.0078963     0.9966134
H           1.0746999    -0.4798970     1.0304013
O           2.2502295    -0.7912414    -0.6450073
C           5.7131334     1.3336691     0.2885217
H           6.6208437     1.8898829     0.5031905
C           4.9300480     0.8358040     1.3265039
H           5.2245591     1.0021334     2.3594556
C           3.7585666     0.1169521     1.0634911
H           3.1677091    -0.2595339     1.8906955
C           3.3704989    -0.1013179    -0.2632397
C           4.1558699     0.3969332    -1.3132041
H           3.8338396     0.2119211    -2.3332766
C           5.3171000     1.1081823    -1.0348118
H           5.9178983     1.4896688    -1.8562036
C          -2.0979125    -3.0162253    -1.5185222
H          -2.9822404    -3.4397241    -1.9869924
C          -1.4575587    -3.7211255    -0.5068020
H          -1.8160989    -4.6896546    -0.1727879
C          -0.3156492    -3.1923357     0.1087873
O           0.2315528    -3.9614013     1.1029415
H           1.0818310    -3.5903803     1.3812189
C           0.1902522    -1.9422474    -0.2898793
C          -0.4737285    -1.2526269    -1.3149864
H          -0.0727844    -0.2942073    -1.6311564
C          -1.6051986    -1.7746556    -1.9325610
H          -2.0983369    -1.2213729    -2.7262766
27
379_C13H12O2_3-0-22-19 (150,) energy =    -653.0359272
C           1.4425663    -1.3745877     0.3272803
H           2.0577300    -2.1471966     0.8207344
H           1.1584095    -0.6485162     1.1053271
O           2.2294675    -0.7296633    -0.6634023
C           5.7089704     1.3497186     0.3091007
H           6.6191041     1.8978170     0.5340414
C           5.0004676     0.7137504     1.3249692