24
201_C8H11NO3S_0-6-12-13 (-165,) energy =    -990.0080431
C           0.4098525    -0.3162154    -1.1735598
H           0.6923802    -0.4176702    -2.2168212
C          -0.9055984    -0.0474843    -0.8238803
H          -1.6592212     0.0778733    -1.5945261
C          -1.2427370     0.0593255     0.5314073
H          -2.2696431     0.2661131     0.8203250
C           1.3908399    -0.4974103    -0.1847455
C          -0.2772966    -0.0893462     1.5165229
H          -0.5216433     0.0021360     2.5700230
C           1.0641952    -0.3429919     1.1826605
O           1.9413802    -0.4352596     2.2011074
H           2.8342008    -0.6413829     1.8183688
S           3.0627196    -0.6146434    -0.8185743
N           3.9214105    -1.2611365     0.5560588
C           5.3356650    -0.8341945     0.5925688
H           5.7441655    -1.1438362     1.5587642
H           5.3891670     0.2501347     0.5055114
H           5.9266917    -1.2949075    -0.2097146
O           3.0750453    -1.5724210    -1.9305420
C           3.7625052    -2.7263081     0.6685983
O           3.6188490     0.7279165    -1.0138939
H           2.7013274    -2.9855847     0.6522272
H           4.1807507    -3.0362436     1.6304259
H           4.2713540    -3.2576076    -0.1438350
24
201_C8H11NO3S_0-6-12-13 (-150,) energy =    -990.0103128
C           0.4337693    -0.4542298    -1.1515540
H           0.7215945    -0.6400197    -2.1811914
C          -0.8977360    -0.2648671    -0.8053411
H          -1.6688249    -0.2954011    -1.5683324
C          -1.2287889    -0.0322035     0.5353344
H          -2.2670090     0.1191269     0.8183382
C           1.4325409    -0.4216414    -0.1675128
C          -0.2470117     0.0020812     1.5169527
H          -0.4927335     0.1728837     2.5601756
C           1.1049585    -0.1826255     1.1868268
O           2.0033740    -0.1390207     2.1905916
H           2.8751111    -0.4503547     1.8367227
S           3.1189930    -0.4489296    -0.7600127
N           3.9159769    -1.2596506     0.5602352
C           5.3597696    -0.9501506     0.6178897
H           5.7430169    -1.3479886     1.5618608
H           5.4987798     0.1302808     0.5964712
H           5.9124149    -1.4073700    -0.2136295
O           3.1735884    -1.2635567    -1.9801588
C           3.6440420    -2.7103388     0.5746239
O           3.6823249     0.9043048    -0.7618607
H           2.5661382    -2.8850444     0.5386837
H           4.0300760    -3.1152884     1.5143777
H           4.1179874    -3.2248348    -0.2699643
24
201_C8H11NO3S_0-6-12-13 (-135,) energy =    -990.0102319
C           0.4697774    -0.5704206    -1.1126989
H           0.7728379    -0.8267182    -2.1223577
C          -0.8720846    -0.4644823    -0.7656684
H          -1.6427412    -0.6443910    -1.5083081
C          -1.2147705    -0.1201787     0.5475967
H          -2.2609601    -0.0291533     0.8270183
C           1.4611952    -0.3258723    -0.1543984
C          -0.2357533     0.0869975     1.5125426
H          -0.4919433     0.3225840     2.5405024
C           1.1226319    -0.0265541     1.1833589
O           2.0297583     0.1322625     2.1701531
H           2.8860620    -0.2506044     1.8642752
S           3.1599791    -0.3196908    -0.7033588
N           3.8933809    -1.2686758     0.5546127
C           5.3524901    -1.0508802     0.6392422
H           5.7036988    -1.5235165     1.5610288
H           5.5566514     0.0188849     0.6815315
H           5.8854577    -1.4918471    -0.2140166
O           3.2336986    -1.0151382    -1.9946736
C           3.5398156    -2.6974860     0.4723263
O           3.7436728     1.0161108    -0.5553756
H           2.4546317    -2.8088201     0.4168723
H           3.8915276    -3.1833692     1.3869410
H           3.9958396    -3.1837654    -0.3991949
24
201_C8H11NO3S_0-6-12-13 (-120,) energy =    -990.0099116
C           0.5294457    -0.7118610    -1.0153584
H           0.8574354    -1.0367801    -1.9974063
C          -0.8179515    -0.6846189    -0.6734088
H          -1.5702997    -0.9844444    -1.3958079
C          -1.1895949    -0.2629658     0.6091618
H          -2.2396933    -0.2441323     0.8880442
C           1.4961831    -0.3454559    -0.0719635
C          -0.2378379     0.1674634     1.5269576
H          -0.5206964     0.5426949     2.5052190
C           1.1221456     0.1744071     1.1871828
O           1.9943329     0.6823250     2.0830046
H           2.8300608     0.9061583     1.6219049
S           3.2093321    -0.3156350    -0.5533597
N           3.8920535    -1.4496638     0.5195158
C           5.3416085    -1.2808137     0.7178129
H           5.6230687    -1.8764750     1.5913125
H           5.5635134    -0.2324426     0.9163027
H           5.9283904    -1.6195426    -0.1483461
O           3.3273933    -0.7222000    -1.9581738
C           3.5088207    -2.8387590     0.2296830
O           3.7678554     0.9818981    -0.1085170
H           2.4234153    -2.9106264     0.1274167
H           3.8115977    -3.4528425     1.0828738
H           3.9837769    -3.2262409    -0.6823119
24
201_C8H11NO3S_0-6-12-13 (-105,) energy =    -990.0118355
C           0.5814399    -0.8128855    -0.9246764
H           0.9359398    -1.2147110    -1.8683694
C          -0.7668345    -0.8402596    -0.5886759
H          -1.4905245    -1.2738522    -1.2713524
C          -1.1770065    -0.2986996     0.6362976
H          -2.2284607    -0.3177521     0.9100381
C           1.5129614    -0.2583450    -0.0380308
C          -0.2628465     0.2875859     1.5032154
H          -0.5760540     0.7386893     2.4392513
C           1.1001335     0.3387755     1.1743896
O           1.9308795     0.9580895     2.0358532
H           2.7863513     1.1318900     1.5833589
S           3.2348119    -0.2543839    -0.4854033
N           3.8711543    -1.4923322     0.4956636
C           5.3172239    -1.3687485     0.7458351
H           5.5647418    -2.0447141     1.5697480
H           5.5500895    -0.3466823     1.0435953
H           5.9221668    -1.6398370    -0.1315944
O           3.3642681    -0.5642527    -1.9137890
C           3.4685746    -2.8426625     0.0801278
O           3.8257597     0.9939779     0.0516960
H           2.3833847    -2.8877597    -0.0372920
H           3.7521298    -3.5339629     0.8791268
H           3.9473931    -3.1565479    -0.8576789
24
201_C8H11NO3S_0-6-12-13 (-90,) energy =    -990.0116843
C           1.1440264     0.2928724     1.6342501
H           1.8529591     0.5326838     2.4197595
C          -0.0080164     1.0461224     1.4546978
H          -0.2125123     1.8926192     2.1023331
C          -0.9039709     0.6947810     0.4361832
H          -1.8083309     1.2783096     0.2863185
C           1.4117742    -0.7961845     0.7933332
C          -0.6657778    -0.4063111    -0.3752582
H          -1.3675236    -0.7062520    -1.1468597
C           0.4861127    -1.1893909    -0.1984124
O           0.6390562    -2.2625870    -1.0052374
H           1.3382266    -2.8421823    -0.6227256
S           2.8991118    -1.7317278     1.1027960
N           4.0654691    -0.9451213     0.1510451
C           3.9470638    -1.1993465    -1.2898916
H           4.5632898    -0.4596203    -1.8093573
H           2.9136269    -1.0675815    -1.6168703
H           4.2819099    -2.2084435    -1.5675444
O           3.3123535    -1.5644742     2.4960998
C           5.4408525    -1.0499390     0.6617065
O           2.6488421    -3.0987842     0.5735932
H           5.4505205    -0.8311890     1.7290430
H           6.0414966    -0.2999570     0.1381150
H           5.8825085    -2.0423245     0.4889842
24
201_C8H11NO3S_0-6-12-13 (-75,) energy =    -990.0123354
C           1.2512601     0.3273635     1.4767858
H           2.0327214     0.6288935     2.1666975
C           0.1160802     1.1047222     1.3051875
H          -0.0015652     2.0303958     1.8592609
C          -0.8770559     0.6753257     0.4126197
H          -1.7716486     1.2755881     0.2702594
C           1.4053281    -0.8706513     0.7619569
C          -0.7411823    -0.5137799    -0.2876668
H          -1.5087139    -0.8624384    -0.9711267
C           0.3996930    -1.3200527    -0.1238271
O           0.4537822    -2.4595953    -0.8393178
H           1.2348993    -2.9823806    -0.5411098
S           2.8919303    -1.8085443     1.0563125
N           4.0680757    -0.9115057     0.2226052
C           3.9572864    -0.9952483    -1.2385805
H           4.5887611    -0.2112596    -1.6667781
H           2.9265917    -0.8048461    -1.5480125
H           4.2747965    -1.9712321    -1.6307745
O           3.2582007    -1.7530855     2.4718533
C           5.4386069    -1.0912451     0.7262016
O           2.6952001    -3.1354650     0.4131162
H           5.4387743    -1.0125941     1.8130416
H           6.0487990    -0.2839924     0.3097706
H           5.8752107    -2.0561238     0.4297212
24
201_C8H11NO3S_0-6-12-13 (-60,) energy =    -990.0122797
C           1.3372190     0.3718563     1.2737222
H           2.2025392     0.7262216     1.8243370
C           0.2096633     1.1667004     1.1408362
H           0.1804394     2.1543262     1.5896691
C          -0.8906181     0.6751181     0.4222233
H          -1.7814427     1.2875113     0.3112401
C           1.3809456    -0.9057856     0.6920865
C          -0.8614685    -0.5866085    -0.1501883
H          -1.7074226    -0.9784096    -0.7057142
C           0.2728632    -1.4112161    -0.0270988
O           0.2122352    -2.6203365    -0.6113406
H           1.0603931    -3.0959687    -0.4462000
S           2.8502035    -1.8780485     0.9609518
N           4.0580398    -0.9005165     0.2820018
C           4.0160394    -0.8278992    -1.1835226
H           4.6711475    -0.0094332    -1.4962458
H           3.0011352    -0.5952447    -1.5155005
H           4.3460075    -1.7601935    -1.6615470
O           3.1571888    -1.9789225     2.3885024
C           5.4047760    -1.1244379     0.8303774
O           2.6835882    -3.1308780     0.1754357
H           5.3504258    -1.1707741     1.9176364
H           6.0235795    -0.2702051     0.5391393
H           5.8679268    -2.0457510     0.4485031
24
201_C8H11NO3S_0-6-12-13 (-45,) energy =    -990.0116439
C           1.4150566     0.4016391     1.0589008
H           2.3456443     0.7940555     1.4548471
C           0.2825342     1.1987433     0.9829015
H           0.3162919     2.2285043     1.3239161
C          -0.9015574     0.6559836     0.4635227
H          -1.7964049     1.2694286     0.4020084
C           1.3781035    -0.9298671     0.6159185
C          -0.9480181    -0.6561136     0.0179921
H          -1.8552501    -1.0852392    -0.3949306
C           0.1908502    -1.4795852     0.0773940
O           0.0596704    -2.7353238    -0.3863436
H           0.9428253    -3.1729139    -0.3813139
S           2.8341447    -1.9399343     0.8211780
N           4.0719537    -0.9058946     0.3059678
C           4.1192452    -0.7016483    -1.1477661
H           4.7792554     0.1484615    -1.3444407
H           3.1228908    -0.4531004    -1.5207490
H           4.4928540    -1.5841876    -1.6838083
O           3.0892196    -2.2199031     2.2359580
C           5.3841508    -1.1624305     0.9199451
O           2.6802862    -3.0893576    -0.1108106
H           5.2619484    -1.3001607     1.9936760
H           6.0077257    -0.2814970     0.7394639
H           5.8829350    -2.0445468     0.4936875
24
201_C8H11NO3S_0-6-12-13 (-30,) energy =    -990.0099629
C           1.4326163     0.4410689     0.8640248
H           2.3982216     0.8593786     1.1260225
C           0.2939852     1.2359888     0.8318112
H           0.3620093     2.2939568     1.0643688
C          -0.9370853     0.6560676     0.4995275
H          -1.8353260     1.2671711     0.4769050
C           1.3479815    -0.9266065     0.5693150
C          -1.0259707    -0.6917822     0.1800275
H          -1.9691262    -1.1479741    -0.1028920
C           0.1164661    -1.5084979     0.1875259
O          -0.0455580    -2.7985004    -0.1677372
H           0.8374047    -3.2041651    -0.3234283
S           2.7955999    -1.9670213     0.6825963
N           4.0581507    -0.9038039     0.3190193
C           4.2001592    -0.5975895    -1.1111099
H           4.8556224     0.2736096    -1.2036581
H           3.2271319    -0.3404079    -1.5354765
H           4.6260919    -1.4354247    -1.6784264
O           3.0103724    -2.4166286     2.0607634
C           5.3275815    -1.1814310     1.0083124
O           2.6391459    -2.9988497    -0.3760217
H           5.1328293    -1.3917962     2.0590336
H           5.9456160    -0.2817855     0.9293878
H           5.8711050    -2.0266207     0.5629371
24
201_C8H11NO3S_0-6-12-13 (-15,) energy =    -990.0070405
C           1.4519267     0.4631800     0.6925326
H           2.4309047     0.9075865     0.8324764
C           0.3004366     1.2437976     0.7016894
H           0.3748273     2.3189243     0.8308865
C          -0.9469473     0.6290483     0.5469972
H          -1.8521704     1.2299360     0.5608884
C           1.3559740    -0.9251928     0.5471118
C          -1.0452709    -0.7430319     0.3470300
H          -2.0028938    -1.2272172     0.1851195
C           0.1062618    -1.5410191     0.3060287
O          -0.0538561    -2.8569710     0.0419624
H           0.7998002    -3.2335546    -0.2630332
S           2.8033025    -1.9757457     0.5451611
N           4.0790354    -0.8917819     0.3157573
C           4.3136465    -0.5161871    -1.0862635
H           4.9567618     0.3690905    -1.0932872
H           3.3680772    -0.2578564    -1.5676018
H           4.7945657    -1.3193272    -1.6595002
O           2.9955854    -2.5773574     1.8682752
C           5.3018679    -1.1857009     1.0783831
O           2.6393518    -2.8823418    -0.6184976
H           5.0399904    -1.4460737     2.1026791
H           5.9103911    -0.2761303     1.0810752
H           5.8864072    -2.0038254     0.6348931
24
201_C8H11NO3S_0-6-12-13 (0,) energy =    -990.0028112
C           1.4421283     0.4752590     0.5523969
H           2.4191834     0.9358982     0.4596390
C           0.3309574     1.2242356     0.9304602
H           0.4421251     2.2774210     1.1685147
C          -0.9229233     0.6086550     0.9960968
H          -1.7975056     1.1873110     1.2804399
C           1.2942902    -0.8722385     0.2105680
C          -1.0624472    -0.7503831     0.7341898
H          -2.0191709    -1.2530332     0.8328415
C           0.0526310    -1.5226198     0.3873972
O          -0.1298397    -2.8570734     0.2384914
H           0.7188387    -3.3238627     0.3740116
S           2.6817666    -1.9136513    -0.2319029
N           4.0165806    -0.8874142    -0.1166750
C           4.9575391    -0.9232928    -1.2452131
H           5.5605769    -0.0111792    -1.1962478
H           4.4061975    -0.9399113    -2.1837233
H           5.6258550    -1.7945720    -1.2054431
O           2.7220362    -2.9869465     0.7866998
C           4.6525750    -0.8434931     1.2080638
O           2.5651385    -2.3008009    -1.6421984
H           3.8928870    -0.7690451     1.9883488
H           5.2817837     0.0510517     1.2504173
H           5.2707342    -1.7293408     1.4042399
24
201_C8H11NO3S_0-6-12-13 (15,) energy =    -990.0070422
C           1.4077479     0.5196847     0.3986792
H           2.3579601     0.9988612     0.1911705
C           0.3124407     1.2588772     0.8336754
H           0.4066920     2.3288813     0.9897127
C          -0.9057964     0.6101339     1.0630767
H          -1.7689937     1.1803924     1.3952915
C           1.2831068    -0.8563347     0.1770279
C          -1.0223597    -0.7650709     0.8978551
H          -1.9496531    -1.2869268     1.1111430
C           0.0788083    -1.5290750     0.4877819
O          -0.0840398    -2.8687096     0.4101439
H           0.7957392    -3.3041405     0.4229749
S           2.6548133    -1.8492257    -0.3978862
N           3.9967411    -0.8559404    -0.1446266
C           5.0319183    -0.9098192    -1.1878016
H           5.6566552    -0.0184310    -1.0743946
H           4.5618146    -0.8967914    -2.1698378
H           5.6665769    -1.8028704    -1.1018262
O           2.6833434    -3.0427479     0.4840162
C           4.5178795    -0.8727151     1.2298503
O           2.5555400    -2.0615899    -1.8451662
H           3.6968625    -0.7727326     1.9428489
H           5.1829267    -0.0116941     1.3473183
H           5.0720303    -1.7930988     1.4552828
24
201_C8H11NO3S_0-6-12-13 (30,) energy =    -990.0099629
C           1.3909511     0.5321094     0.2380363
H           2.3021801     1.0225717    -0.0862076
C           0.3105685     1.2683729     0.7071659
H           0.3714217     2.3507293     0.7601395
C          -0.8532218     0.5986232     1.1063116
H          -1.7066389     1.1648309     1.4694718
C           1.3143827    -0.8654277     0.1633289
C          -0.9283705    -0.7866443     1.0611581
H          -1.8149110    -1.3188973     1.3904762
C           0.1597180    -1.5505683     0.6086479
O           0.0219351    -2.8911724     0.6271605
H           0.9026557    -3.3084528     0.4906239
S           2.6728914    -1.8104993    -0.5091240
N           4.0205389    -0.8644224    -0.1278967
C           5.1209187    -0.9220146    -1.1023127
H           5.7754865    -0.0671406    -0.9066401
H           4.7183424    -0.8420454    -2.1111410
H           5.7087674    -1.8468891    -1.0176563
O           2.6866548    -3.0938437     0.2409778
C           4.4485596    -0.9560082     1.2748107
O           2.5993316    -1.8646656    -1.9717534
H           3.5865515    -0.8409373     1.9356489
H           5.1412830    -0.1314326     1.4681969
H           4.9452030    -1.9089087     1.4996832
24
201_C8H11NO3S_0-6-12-13 (45,) energy =    -990.0116433
C           1.3190971     0.5604161     0.0550647
H           2.1682693     1.0645585    -0.3938073
C           0.2522397     1.2841069     0.5669043
H           0.2554373     2.3683446     0.5194772
C          -0.8269641     0.5968912     1.1408322
H          -1.6703994     1.1521642     1.5422793
C           1.3214676    -0.8419217     0.1167037
C          -0.8325121    -0.7877681     1.2120865
H          -1.6572331    -1.3307001     1.6623819
C           0.2427836    -1.5412418     0.7075716
O           0.1597988    -2.8784498     0.8275572
H           1.0081729    -3.2809340     0.5279891
S           2.6712593    -1.7286477    -0.6407501
N           4.0229355    -0.8514391    -0.1194846
C           5.1803534    -0.9098662    -1.0261806
H           5.8608111    -0.1019803    -0.7402981
H           4.8470528    -0.7507016    -2.0510711
H           5.7175443    -1.8668720    -0.9618434
O           2.6614334    -3.0927485    -0.0466202
C           4.3601190    -1.0521890     1.2961118
O           2.6339458    -1.6044205    -2.0995019
H           3.4656132    -0.9318036     1.9117633
H           5.0778414    -0.2774121     1.5816778
H           4.7967459    -2.0413568     1.4876033
24
201_C8H11NO3S_0-6-12-13 (60,) energy =    -990.0122807
C           1.2000670     0.5896683    -0.1392608
H           1.9538753     1.0979004    -0.7316921
C           0.1484826     1.2950446     0.4240474
H           0.0684374     2.3672549     0.2769404
C          -0.8083323     0.6037307     1.1826723
H          -1.6386845     1.1445534     1.6286881
C           1.3106758    -0.7974104     0.0517044
C          -0.7133611    -0.7657317     1.3717709
H          -1.4487684    -1.3115567     1.9540282
C           0.3459655    -1.5023806     0.8085465
O           0.3577536    -2.8260992     1.0419994
H           1.1394864    -3.2220617     0.5892152
S           2.6620399    -1.6306752    -0.7581563
N           4.0151309    -0.8540368    -0.0932428
C           5.2199056    -0.9013408    -0.9364815
H           5.9189083    -0.1526766    -0.5513969
H           4.9548154    -0.6467141    -1.9622181
H           5.7084652    -1.8863063    -0.9196619
O           2.6072347    -3.0538662    -0.3268289
C           4.2617511    -1.1850454     1.3157717
O           2.6786152    -1.3305981    -2.1906392
H           3.3409535    -1.0659396     1.8922360
H           4.9981068    -0.4739940     1.7016568
H           4.6397443    -2.2077705     1.4485970
24
201_C8H11NO3S_0-6-12-13 (75,) energy =    -990.0123354
C           1.0747264     0.5997366    -0.3279174
H           1.7171516     1.0931313    -1.0500197
C           0.0242129     1.2792258     0.2696326
H          -0.1651652     2.3189413     0.0229809
C          -0.7908099     0.6034414     1.1896523
H          -1.6177427     1.1250974     1.6639261
C           1.3211640    -0.7452186    -0.0111765
C          -0.5647248    -0.7293043     1.4986737
H          -1.1964915    -1.2659590     2.1991430
C           0.4918052    -1.4386648     0.8994345
O           0.6424326    -2.7294455     1.2524184
H           1.3305929    -3.1360729     0.6749439
S           2.6861370    -1.5389446    -0.8376866
N           4.0346124    -0.8830317    -0.0411516
C           5.2728845    -0.8925536    -0.8354169
H           5.9818888    -0.2190854    -0.3443347
H           5.0637306    -0.5192213    -1.8375566
H           5.7232153    -1.8934849    -0.9050918
O           2.5701009    -2.9947235    -0.5541498
C           4.2082368    -1.3659003     1.3339979
O           2.7707797    -1.0910419    -2.2280798
H           3.2654883    -1.2866932     1.8810711
H           4.9395121    -0.7176399     1.8256760
H           4.5601468    -2.4059262     1.3749642
24
201_C8H11NO3S_0-6-12-13 (90,) energy =    -990.0116837
C           0.9372300     0.6071924    -0.4654578
H           1.4874788     1.0655087    -1.2804961
C          -0.1290761     1.2611980     0.1366395
H          -0.4241280     2.2487495    -0.2031842
C          -0.8210375     0.6287123     1.1780397
H          -1.6565150     1.1319488     1.6571657
C           1.3237839    -0.6651854    -0.0225616
C          -0.4696680    -0.6478813     1.5959329
H          -1.0172164    -1.1605574     2.3802492
C           0.5955926    -1.3309561     0.9881075
O           0.8633887    -2.5812209     1.4257949
H           1.4530749    -3.0202617     0.7697260
S           2.6870817    -1.4529366    -0.8619799
N           4.0444852    -0.9354024     0.0180977
C           5.2889716    -0.8692341    -0.7634183
H           6.0071248    -0.2808462    -0.1842398
H           5.0978795    -0.3652296    -1.7102773
H           5.7194887    -1.8622053    -0.9592939
O           2.4949079    -2.9169071    -0.6855750
C           4.2011915    -1.5779478     1.3286427
O           2.8268546    -0.9030764    -2.2104469
H           3.2570198    -1.5615848     1.8768630
H           4.9332853    -0.9974202     1.8976493
H           4.5475412    -2.6177055     1.2481946
24
201_C8H11NO3S_0-6-12-13 (105,) energy =    -990.0118358
C           0.9762915     0.2355146    -0.8974439
H           1.5328588     0.3928228    -1.8156873
C          -0.0543149     1.0889460    -0.5218014
H          -0.3154213     1.9370499    -1.1465640
C          -0.7508463     0.8372071     0.6670511
H          -1.5563274     1.5001299     0.9713545
C           1.3138404    -0.8541419    -0.0851094
C          -0.4456327    -0.2641368     1.4577129
H          -1.0015613    -0.4845554     2.3633023
C           0.5808637    -1.1459160     1.0872863
O           0.8024457    -2.2181357     1.8730914
H           1.3648429    -2.8598503     1.3844580
S           2.6501673    -1.9189048    -0.5810566
N           3.9005492    -1.4547100     0.4771478
C           4.4669873    -0.1323695     0.1791970
H           5.1137307     0.1474386     1.0158418
H           3.6662071     0.6074476     0.1080554
H           5.0525289    -0.1226960    -0.7504344
O           2.2937277    -3.2954770    -0.1639109
C           4.9240551    -2.4933586     0.6831882
O           2.9882404    -1.6488019    -1.9831389
H           4.4395471    -3.4460098     0.8956483
H           5.5204229    -2.1959529     1.5508741
H           5.5899486    -2.6086823    -0.1843640
24
201_C8H11NO3S_0-6-12-13 (120,) energy =    -990.0099113
C           0.8801693     0.2024496    -0.9808575
H           1.3694588     0.3226964    -1.9419478
C          -0.1890104     1.0079371    -0.6049199
H          -0.5584443     1.7733330    -1.2798012
C          -0.7825529     0.8160776     0.6487429
H          -1.6149676     1.4442881     0.9541926
C           1.3667490    -0.7675374    -0.0970894
C          -0.3472188    -0.1920054     1.5018826
H          -0.8335810    -0.3799027     2.4536767
C           0.7102841    -1.0316401     1.1256097
O           1.0363517    -2.0467909     1.9532595
H           1.5529481    -2.7124283     1.4519964
S           2.6853668    -1.8390932    -0.6274399
N           3.9007887    -1.4858755     0.5127833
C           4.4961860    -0.1526450     0.3448605
H           5.0935032     0.0602657     1.2362552
H           3.7072350     0.6001344     0.2767177
H           5.1369439    -0.0854921    -0.5452846
O           2.2807284    -3.2262687    -0.3037165
C           4.9054013    -2.5524286     0.6607935
O           3.0752686    -1.4891550    -1.9979831
H           4.4041706    -3.5140289     0.7694447
H           5.4735432    -2.3414696     1.5716928
H           5.6006802    -2.5984690    -0.1899544
24
201_C8H11NO3S_0-6-12-13 (135,) energy =    -990.0102319
C           0.7549204     0.1399305    -1.0875010
H           1.1828767     0.2228589    -2.0809402
C          -0.3592809     0.8835325    -0.7162227
H          -0.8172416     1.5686438    -1.4224063
C          -0.8831261     0.7347170     0.5737755
H          -1.7574234     1.3073734     0.8713156
C           1.3355377    -0.7517471    -0.1770891
C          -0.2886462    -0.1208125     1.4942142
H          -0.6676052    -0.2191333     2.5064232
C           0.8425145    -0.8704355     1.1407133
O           1.4115961    -1.6448845     2.0884535
H           2.3252171    -1.8707510     1.7923015
S           2.6605307    -1.7924719    -0.7673918
N           3.7896599    -1.6257781     0.5434288
C           4.4258031    -0.2965059     0.5840344
H           4.9771074    -0.2169579     1.5253317
H           3.6601204     0.4822498     0.5647925
H           5.1138020    -0.1447184    -0.2571515
O           2.2588870    -3.2013565    -0.7408163
C           4.7756378    -2.7259948     0.5739308
O           3.1988439    -1.2046645    -2.0007907
H           4.2532123    -3.6812985     0.5257113
H           5.3178175    -2.6569012     1.5213956
H           5.4938072    -2.6592381    -0.2545211
24
201_C8H11NO3S_0-6-12-13 (150,) energy =    -990.0103128
C           0.6508413     0.0736033    -1.1360341
H           1.0223349     0.1128154    -2.1548377
C          -0.5078936     0.7473552    -0.7726408
H          -1.0602695     1.3191089    -1.5113247
C          -0.9524982     0.6760359     0.5533868
H          -1.8586913     1.1975651     0.8495365
C           1.3710152    -0.6613787    -0.1830925
C          -0.2466764    -0.0492451     1.5044015
H          -0.5766859    -0.1046351     2.5368324
C           0.9242834    -0.7408145     1.1558908
O           1.5590617    -1.4220769     2.1303409
H           2.4407400    -1.7094538     1.7808061
S           2.7081488    -1.6666071    -0.8136682
N           3.7975306    -1.6508180     0.5459156
C           4.5083739    -0.3643184     0.6811076
H           5.0346563    -0.3702684     1.6398233
H           3.7883800     0.4574327     0.6859888
H           5.2268602    -0.2053299    -0.1320147
O           2.2835496    -3.0642400    -0.9359996
C           4.7136587    -2.8102717     0.5431449
O           3.3050742    -0.9818725    -1.9669869
H           4.1355348    -3.7272523     0.4334933
H           5.2330695    -2.8201083     1.5056151
H           5.4561651    -2.7464320    -0.2633912
24
201_C8H11NO3S_0-6-12-13 (165,) energy =    -990.0080432
C           0.5390203    -0.0016932    -1.1588057
H           0.8506370    -0.0208069    -2.1985233
C          -0.6578758     0.5975842    -0.7937462
H          -1.2985841     1.0393561    -1.5499851
C          -1.0236522     0.6225503     0.5581256
H          -1.9566931     1.0912000     0.8590716
C           1.3847120    -0.5614597    -0.1870357
C          -0.2104052     0.0477754     1.5239791
H          -0.4863910     0.0494255     2.5736452
C           0.9968289    -0.5804596     1.1728530
O           1.7057630    -1.1446278     2.1700634
H           2.5368634    -1.5225952     1.7795320
S           2.7683151    -1.4820369    -0.8572772
N           3.8043575    -1.6366948     0.5381414
C           4.6087130    -0.4181614     0.7679855
H           5.1069003    -0.5227096     1.7359538
H           3.9536453     0.4553093     0.8078206
H           5.3572106    -0.2664209    -0.0181083
O           2.3507053    -2.8519882    -1.1714844
C           4.6240045    -2.8657095     0.5024865
O           3.4162347    -0.6671036    -1.8917709
H           3.9798009    -3.7256241     0.3242335
H           5.1041641    -2.9652952     1.4801446
H           5.3989650    -2.8224628    -0.2739246
24
201_C8H11NO3S_0-6-12-13 (180,) energy =    -990.0049161
C           0.4362594    -0.1520038    -1.1787423
H           0.6931365    -0.2601808    -2.2282072
C          -0.7950204     0.3727179    -0.8148582
H          -1.5083705     0.6663867    -1.5780651
C          -1.1016873     0.5136986     0.5446609
H          -2.0606385     0.9265647     0.8457346
C           1.3752660    -0.5239817    -0.2017779
C          -0.1965292     0.1186203     1.5178744
H          -0.4267429     0.2011546     2.5753173
C           1.0507917    -0.4295061     1.1699265
O           1.8482589    -0.8222069     2.1838158
H           2.6327324    -1.2833841     1.7858264
S           2.8696512    -1.2475708    -0.8870182
N           3.8264252    -1.6015591     0.5344364
C           4.7895933    -0.5209403     0.8421963
H           5.2377715    -0.7444059     1.8146292
H           4.2666021     0.4345829     0.9118064
H           5.5760888    -0.4408595     0.0839895
O           2.5346618    -2.5439244    -1.4845708