25
077_C11H10N2O2_0-5-12-10 (-165,) energy =    -685.1254138
N           1.8215870    -1.2852560    -0.7377590
C           1.9550196    -0.4553690    -1.9484641
H           2.9301495     0.0275585    -1.9439424
H           1.1675796     0.3035363    -1.9810942
H           1.8648143    -1.0848511    -2.8378273
C           2.9406982    -1.6036891     0.0714841
C           5.5903560     1.5031735     1.4119479
H           6.2649672     2.2713300     1.7803930
C           5.9817900     0.1616743     1.4269312
H           6.9594292    -0.1165853     1.8105392
C           5.1143175    -0.8226951     0.9623258
H           5.3908293    -1.8714425     0.9890333
C           3.8553177    -0.4764731     0.4486136
C           3.4585929     0.8694545     0.4626365
H           2.4632823     1.1467048     0.1311016
C           4.3244433     1.8534246     0.9390219
H           4.0054191     2.8919474     0.9508519
O           3.1066714    -2.7274498     0.5129150
C          -1.0177692    -3.2339065    -1.2577774
H          -1.8116648    -3.6261688    -1.8770309
N          -0.0255878    -2.4112810    -1.7833018
C           0.7369605    -2.1535238    -0.7604026
O           0.3377946    -2.7169999     0.4029386
C          -0.7931117    -3.4261368     0.0626715
H          -1.2622024    -3.9853679     0.8554575
25
077_C11H10N2O2_0-5-12-10 (-150,) energy =    -685.1262692
N           1.8273751    -1.3163501    -0.6773697
C           2.0346617    -0.4943855    -1.8818497
H           2.9937316     0.0131253    -1.8067563
H           1.2339072     0.2443304    -1.9812923
H           2.0266859    -1.1335489    -2.7687363
C           2.8613942    -1.5833706     0.2472729
C           5.6285368     1.5253337     1.3145718
H           6.3347944     2.2971006     1.6085562
C           6.0338165     0.1889225     1.2629927
H           7.0551547    -0.0806546     1.5171180
C           5.1262741    -0.8016127     0.8961041
H           5.4168868    -1.8470570     0.8778092
C           3.8106759    -0.4623906     0.5501359
C           3.4068731     0.8791180     0.6129736
H           2.3790389     1.1447808     0.3839857
C           4.3122126     1.8674583     0.9986053
H           3.9883031     2.9029006     1.0572966
O           2.9575888    -2.6598375     0.8105707
C          -0.9788612    -3.2620800    -1.3613173
H          -1.7223050    -3.6689419    -2.0316451
N           0.0591604    -2.4615499    -1.8282948
C           0.7377315    -2.1764789    -0.7545596
O           0.2404069    -2.7014590     0.3884346
C          -0.8646295    -3.4139613    -0.0214538
H          -1.4013005    -3.9455913     0.7470921
25
077_C11H10N2O2_0-5-12-10 (-135,) energy =    -685.1256583
N           1.8251981    -1.3429181    -0.6307355
C           2.1020157    -0.5371282    -1.8311743
H           3.0427566    -0.0087250    -1.6969277
H           1.2958513     0.1829290    -1.9989655
H           2.1677448    -1.1907295    -2.7048975
C           2.7671894    -1.5429348     0.3971261
C           5.6554091     1.5315115     1.2188012
H           6.3927358     2.2966207     1.4462320
C           6.0494913     0.1972895     1.0894944
H           7.0933152    -0.0771523     1.2141965
C           5.1031993    -0.7864222     0.8092567
H           5.3921674    -1.8301889     0.7341745
C           3.7574509    -0.4390077     0.6335154
C           3.3668009     0.9012486     0.7586172
H           2.3216050     1.1719268     0.6356226
C           4.3125582     1.8808748     1.0610793
H           4.0010239     2.9156769     1.1737663
O           2.7823326    -2.5549496     1.0753982
C          -0.9568035    -3.2701289    -1.4492388
H          -1.6611835    -3.6809533    -2.1582172
N           0.1169451    -2.4880220    -1.8625549
C           0.7298835    -2.1913858    -0.7525474
O           0.1569660    -2.6928241     0.3647037
C          -0.9288951    -3.3997274    -0.1024773
H          -1.5186992    -3.9119982     0.6398028
25
077_C11H10N2O2_0-5-12-10 (-120,) energy =    -685.1241500
N           1.8153531    -1.3645063    -0.5919048
C           2.1643567    -0.5959850    -1.7972419
H           3.0627980    -0.0159816    -1.6020653
H           1.3433088     0.0745704    -2.0655086
H           2.3382447    -1.2780921    -2.6337361
C           2.6605414    -1.4801317     0.5249804
C           5.6726211     1.5284612     1.1417444
H           6.4388015     2.2791941     1.3150495
C           6.0341665     0.1971907     0.9223804
H           7.0821360    -0.0896375     0.9223119
C           5.0516250    -0.7691492     0.7099641
H           5.3234532    -1.8103266     0.5631628
C           3.6996373    -0.4050681     0.7000150
C           3.3401156     0.9328751     0.9082476
H           2.2912038     1.2175698     0.8994016
C           4.3248311     1.8935059     1.1405387
H           4.0393842     2.9267502     1.3181969
O           2.5757279    -2.4018181     1.3163077
C          -0.9263302    -3.2942181    -1.5281111
H          -1.5892750    -3.7154544    -2.2701553
N           0.1730427    -2.5232327    -1.8913199
C           0.7206300    -2.2081190    -0.7521114
O           0.0816089    -2.6882963     0.3377435
C          -0.9787537    -3.3991990    -0.1800132
H          -1.6137233    -3.8950284     0.5356899
25
077_C11H10N2O2_0-5-12-10 (-105,) energy =    -685.1226559
N           1.7936603    -1.3854712    -0.5650399
C           2.2105371    -0.6719444    -1.7825056
H           3.0413868    -0.0138227    -1.5419833
H           1.3739737    -0.0860693    -2.1712804
H           2.5137518    -1.3871356    -2.5522367
C           2.5358600    -1.3844627     0.6254000
C           5.6977529     1.5024684     1.0859876
H           6.4990853     2.2232850     1.2233022
C           5.9969057     0.1752399     0.7710656
H           7.0312849    -0.1391476     0.6622288
C           4.9699658    -0.7533365     0.6003193
H           5.2011249    -1.7900815     0.3719121
C           3.6347437    -0.3552584     0.7359715
C           3.3366826     0.9774902     1.0455905
H           2.3005308     1.2880613     1.1515854
C           4.3670892     1.9010090     1.2264852
H           4.1296136     2.9314400     1.4765671
O           2.3254368    -2.1674862     1.5331688
C          -0.8963523    -3.3384609    -1.5918384
H          -1.5262582    -3.7651318    -2.3591490
N           0.2040449    -2.5511784    -1.9127426
C           0.7060025    -2.2330193    -0.7525331
O           0.0373834    -2.7285305     0.3114471
C          -0.9961902    -3.4493788    -0.2470719
H          -1.6511443    -3.9532471     0.4445552
25
077_C11H10N2O2_0-5-12-10 (-90,) energy =    -685.1221860
N           1.8616990    -1.3583611    -0.4909456
C           2.2620813    -0.6414708    -1.7119987
H           3.1563872    -0.0596771    -1.5045347
H           1.4567196     0.0197227    -2.0440226
H           2.4629164    -1.3605470    -2.5095855
C           2.4364768    -1.1231688     0.7655517
C           5.8547447     1.4738074     1.1138012
H           6.7180069     2.1226766     1.2332621
C           6.0317192     0.1221484     0.8124182
H           7.0328132    -0.2852559     0.7004315
C           4.9242904    -0.7128932     0.6594496
H           5.0634196    -1.7666976     0.4329822
C           3.6304780    -0.1970334     0.8029856
C           3.4562758     1.1561308     1.1177521
H           2.4539725     1.5544373     1.2509235
C           4.5658707     1.9884539     1.2674509
H           4.4229307     3.0380567     1.5095025
O           2.0172193    -1.6281973     1.7902509
C          -0.8665286    -3.2685692    -1.4948808
H          -1.6089692    -3.5579791    -2.2247130
N           0.0626164    -2.2696602    -1.7629787
C           0.7700325    -2.2027649    -0.6692050
O           0.4011314    -3.0674661     0.3001234
C          -0.6644826    -3.7504857    -0.2471071
H          -1.1239213    -4.4941684     0.3829589
25
077_C11H10N2O2_0-5-12-10 (-75,) energy =    -685.1231756
N           1.7685554    -1.2955627    -0.7129139
C           2.2600503    -0.6600534    -1.9453216
H           3.1033441    -0.0187126    -1.7016522
H           1.4635745    -0.0676320    -2.4038385
H           2.5714240    -1.4262698    -2.6599897
C           2.1989139    -0.9267894     0.5702996
C           5.7941989     1.3782681     1.0908263
H           6.7002592     1.9541369     1.2582285
C           5.8780047     0.0508411     0.6666774
H           6.8486847    -0.4119218     0.5107997
C           4.7153062    -0.6886413     0.4465733
H           4.7810064    -1.7227973     0.1183317
C           3.4598445    -0.1020321     0.6509693
C           3.3806423     1.2204628     1.1044811
H           2.4073863     1.6612545     1.3006811
C           4.5440478     1.9616611     1.3087420
H           4.4745313     2.9914179     1.6484254
O           1.5960754    -1.2363983     1.5814234
C          -0.9142892    -3.2523901    -1.7520206
H          -1.6391374    -3.5618678    -2.4912078
N          -0.0056012    -2.2318016    -2.0103189
C           0.6824527    -2.1431915    -0.9068695
O           0.3221391    -3.0155865     0.0595316
C          -0.7195605    -3.7243043    -0.4989661
H          -1.1748498    -4.4725997     0.1287083
25
077_C11H10N2O2_0-5-12-10 (-60,) energy =    -685.1247909
N           1.7655435    -1.2813727    -0.7474139
C           2.2876656    -0.7197008    -2.0031111
H           3.0601047     0.0098148    -1.7719482
H           1.4776113    -0.2375774    -2.5566472
H           2.7055776    -1.5145128    -2.6273172
C           2.0947714    -0.7724908     0.5210480
C           5.7997973     1.3155827     1.1383293
H           6.7332286     1.8374730     1.3307929
C           5.8174497     0.0328135     0.5876552
H           6.7634672    -0.4508678     0.3602682
C           4.6192266    -0.6348807     0.3329093
H           4.6326258    -1.6344519    -0.0937415
C           3.3946063    -0.0230225     0.6328707
C           3.3837390     1.2492224     1.2189991
H           2.4340858     1.6987086     1.4932598
C           4.5812683     1.9228304     1.4522629
H           4.5648568     2.9166357     1.8910738
O           1.3747959    -0.9203733     1.4920204
C          -0.8698266    -3.3411303    -1.7109091
H          -1.5842342    -3.7027451    -2.4364701
N           0.0123863    -2.3087750    -2.0127940
C           0.6935936    -2.1518904    -0.9135467
O           0.3551714    -2.9916810     0.0898328
C          -0.6664973    -3.7508928    -0.4374104
H          -1.1056646    -4.4810304     0.2223405
25
077_C11H10N2O2_0-5-12-10 (-45,) energy =    -685.1260384
N           1.7886002    -1.2672734    -0.7799821
C           2.3300910    -0.7693751    -2.0552338
H           3.0518090     0.0184600    -1.8526267
H           1.5167814    -0.3743197    -2.6694391
H           2.8153151    -1.5807494    -2.6057034
C           2.0328988    -0.6336778     0.4554266
C           5.8125246     1.2735784     1.1843293
H           6.7633954     1.7532240     1.4001542
C           5.7848206     0.0501682     0.5119703
H           6.7126902    -0.4301440     0.2138222
C           4.5646730    -0.5623528     0.2263104
H           4.5438103    -1.5188460    -0.2885809
C           3.3628268     0.0427323     0.6201716
C           3.3992294     1.2541346     1.3238929
H           2.4655163     1.6927495     1.6615628
C           4.6177883     1.8747090     1.5892629
H           4.6373935     2.8218812     2.1211349
O           1.2193059    -0.6478818     1.3622670
C          -0.8339238    -3.3807552    -1.6626937
H          -1.5394462    -3.7848416    -2.3744119
N           0.0475706    -2.3626824    -2.0123162
C           0.7164922    -2.1421126    -0.9169922
O           0.3719511    -2.9283408     0.1276305
C          -0.6427429    -3.7182211    -0.3662643
H          -1.0874840    -4.4116444     0.3284549
25
077_C11H10N2O2_0-5-12-10 (-30,) energy =    -685.1261506
N           1.8112203    -1.2621949    -0.8181101
C           2.3585534    -0.8214694    -2.1131291
H           3.0475077     0.0038505    -1.9472490
H           1.5428974    -0.4922301    -2.7621344
H           2.8824704    -1.6450667    -2.6074207
C           1.9861082    -0.5147445     0.3695735
C           5.8137834     1.2318916     1.2442819
H           6.7740943     1.6771803     1.4900344
C           5.7595598     0.0807156     0.4559556
H           6.6764469    -0.3782961     0.0966108
C           4.5278839    -0.4878552     0.1324296
H           4.4914190    -1.3953537    -0.4624461
C           3.3392840     0.0862935     0.6063739
C           3.4031717     1.2292575     1.4163370
H           2.4777524     1.6465857     1.7996095
C           4.6331120     1.8045641     1.7248500
H           4.6728735     2.6958859     2.3448074
O           1.0959868    -0.4087133     1.1954688
C          -0.8133587    -3.4121968    -1.6058002
H          -1.5145751    -3.8555763    -2.2981277
N           0.0728460    -2.4170582    -2.0069032
C           0.7341970    -2.1350051    -0.9216168
O           0.3807384    -2.8601305     0.1640663
C          -0.6328716    -3.6743588    -0.2905467
H          -1.0849878    -4.3255920     0.4393686
25
077_C11H10N2O2_0-5-12-10 (-15,) energy =    -685.1248285
N           1.8312552    -1.2729418    -0.8724986
C           2.3705482    -0.8889592    -2.1901571
H           3.0404509    -0.0400774    -2.0682986
H           1.5494239    -0.6109406    -2.8562912
H           2.9132157    -1.7253647    -2.6409254
C           1.9545006    -0.4180332     0.2544545
C           5.8006465     1.1961628     1.3002371
H           6.7625539     1.6157031     1.5824297
C           5.7409705     0.1297085     0.4011464
H           6.6551086    -0.2890340    -0.0104787
C           4.5079850    -0.4070126     0.0321115
H           4.4749045    -1.2571676    -0.6408994
C           3.3208532     0.1111934     0.5714884
C           3.3914376     1.1777261     1.4810094
H           2.4665311     1.5626877     1.8971780
C           4.6226575     1.7173975     1.8419285
H           4.6653751     2.5436221     2.5461394
O           1.0062851    -0.2001016     0.9884844
C          -0.7974957    -3.4555411    -1.5491312
H          -1.4919864    -3.9431506    -2.2181276
N           0.0993721    -2.4945464    -2.0070270
C           0.7478614    -2.1405966    -0.9354588
O           0.3765456    -2.7868229     0.1938033
C          -0.6363034    -3.6256679    -0.2164877
H          -1.1018951    -4.2223548     0.5506320
25
077_C11H10N2O2_0-5-12-10 (0,) energy =    -685.1221677
N           1.8558129    -1.2769635    -0.9219499
C           2.3944225    -0.9656421    -2.2598467
H           3.0260877    -0.0814457    -2.1948728
H           1.5698018    -0.7683109    -2.9498347
H           2.9758740    -1.8079383    -2.6476692
C           1.9533373    -0.3310082     0.1390021
C           5.7932067     1.1670095     1.3805154
H           6.7496351     1.5651357     1.7086569
C           5.7454458     0.2134946     0.3622456
H           6.6637009    -0.1381180    -0.0998877
C           4.5200318    -0.2978410    -0.0638332
H           4.5080150    -1.0684293    -0.8257421
C           3.3250284     0.1319404     0.5342490
C           3.3847720     1.0956453     1.5543706
H           2.4541707     1.4267549     2.0020963
C           4.6086506     1.6033544     1.9794294
H           4.6398438     2.3424394     2.7751434
O           0.9691669    -0.0122129     0.7826922
C          -0.7897058    -3.4757368    -1.4715286
H          -1.4796266    -4.0076363    -2.1108664
N           0.1250916    -2.5630387    -1.9896457
C           0.7619501    -2.1324372    -0.9394373
O           0.3655761    -2.6832193     0.2315263
C          -0.6513935    -3.5411692    -0.1273188
H          -1.1356635    -4.0702695     0.6769219
25
077_C11H10N2O2_0-5-12-10 (15,) energy =    -685.1248252
N           1.9479885    -1.6092617    -0.7873771
C           3.0851945    -2.3072743    -1.4148060
H           4.0054307    -2.0138245    -0.9134392
H           3.1496958    -2.0589964    -2.4786592
H           2.9488081    -3.3877246    -1.3200981
C           2.0896375    -0.9253355     0.4486709
C           5.2854978     1.9042067     0.9725127
H           6.0856021     2.6230197     1.1277249
C           4.9698860     1.4785802    -0.3191610
H           5.5160798     1.8716049    -1.1721624
C           3.9477055     0.5517404    -0.5209315
H           3.6890699     0.2541812    -1.5314705
C           3.2210981     0.0508620     0.5699165
C           3.5398334     0.4912339     1.8638550
H           2.9640067     0.1029490     2.6971945
C           4.5658065     1.4103129     2.0638084
H           4.8047311     1.7433799     3.0699528
O           1.2700399    -1.0567159     1.3411085
C          -0.8997672    -3.2409943    -1.9532943
H          -1.3997121    -4.0477797    -2.4698012
N           0.4812148    -3.2352550    -1.7787299
C           0.7059158    -2.1341330    -1.1219883
O          -0.3964840    -1.3970900    -0.8534173
C          -1.4317710    -2.1338641    -1.3858853
H          -2.4221951    -1.7306047    -1.2527623
25
077_C11H10N2O2_0-5-12-10 (30,) energy =    -685.1261504
N           1.9149532    -1.5907428    -0.7535165
C           3.0801145    -2.2904670    -1.3223865
H           3.9856513    -1.9221364    -0.8453184
H           3.1372882    -2.1210731    -2.4017125
H           2.9851295    -3.3652351    -1.1461621
C           2.0042446    -0.8093963     0.4222283
C           5.3370358     1.8493346     0.9625223
H           6.1666898     2.5335927     1.1185194
C           4.9255542     1.5354185    -0.3342711
H           5.4256379     1.9827070    -1.1888751
C           3.8662464     0.6512420    -0.5368150
H           3.5356951     0.4270956    -1.5464056
C           3.2018323     0.0821327     0.5595252
C           3.6065537     0.4201600     1.8588804
H           3.0658246    -0.0051751     2.6980437
C           4.6747202     1.2907274     2.0589563
H           4.9878613     1.5392557     3.0691825
O           1.1209558    -0.8135474     1.2621259
C          -0.8702017    -3.3130173    -1.9421687
H          -1.3417563    -4.1560127    -2.4265230
N           0.5007150    -3.2846877    -1.7039535
C           0.6895653    -2.1406043    -1.1124756
O          -0.4277105    -1.3966383    -0.9452809
C          -1.4332072    -2.1745390    -1.4751990
H          -2.4306087    -1.7709088    -1.4152794
25
077_C11H10N2O2_0-5-12-10 (45,) energy =    -685.1260389
N           1.8828507    -1.5752136    -0.7252920
C           3.0717499    -2.2713648    -1.2437098
H           3.9601923    -1.8612622    -0.7691826
H           3.1434530    -2.1477641    -2.3283870
H           2.9964259    -3.3391203    -1.0223968
C           1.9308618    -0.6835193     0.3652572
C           5.3844240     1.8002414     0.9628116
H           6.2399697     2.4486759     1.1312486
C           4.9031953     1.6020670    -0.3328142
H           5.3748975     2.1041753    -1.1730014
C           3.8106939     0.7629034    -0.5515086
H           3.4305494     0.6160893    -1.5586702
C           3.1866492     0.1224377     0.5282910
C           3.6539512     0.3518746     1.8294976
H           3.1373552    -0.1151016     2.6621337
C           4.7584442     1.1732469     2.0434713
H           5.1251379     1.3337112     3.0535269
O           0.9940623    -0.5488853     1.1327641
C          -0.8389745    -3.3728806    -1.9441966
H          -1.2814811    -4.2427270    -2.4080381
N           0.5210311    -3.3161817    -1.6560736
C           0.6735539    -2.1446797    -1.1085924
O          -0.4571226    -1.4087813    -1.0168804
C          -1.4322101    -2.2219374    -1.5508427
H          -2.4353864    -1.8283504    -1.5473017
25
077_C11H10N2O2_0-5-12-10 (60,) energy =    -685.1247906
N           1.8841413    -1.5509566    -0.6851137
C           3.0873946    -2.2661824    -1.1384103
H           3.9669358    -1.7822456    -0.7207054
H           3.1439882    -2.2553872    -2.2305485
H           3.0452745    -3.3068713    -0.8063799
C           1.9087145    -0.5460988     0.2977072
C           5.4701840     1.7644756     0.9645169
H           6.3501777     2.3744325     1.1495981
C           4.9264487     1.6951852    -0.3194895
H           5.3745313     2.2583167    -1.1335640
C           3.8013064     0.9062075    -0.5601423
H           3.3763869     0.8537195    -1.5591622
C           3.2102995     0.1847073     0.4859126
C           3.7382019     0.2867866     1.7793790
H           3.2476945    -0.2363963     2.5947123
C           4.8751287     1.0582684     2.0129750
H           5.2896564     1.1190174     3.0154587
O           0.9341512    -0.2686124     0.9731752
C          -0.7874962    -3.4352845    -1.8800771
H          -1.2062209    -4.3325489    -2.3126900
N           0.5646533    -3.3436885    -1.5662900
C           0.6871499    -2.1454038    -1.0704398
O          -0.4560219    -1.4251407    -1.0350924
C          -1.4064945    -2.2771783    -1.5533548
H          -2.4149124    -1.8990279    -1.5901540
25
077_C11H10N2O2_0-5-12-10 (75,) energy =    -685.1231755
N           1.8371435    -1.5221238    -0.6857452
C           3.0545046    -2.2588064    -1.0593090
H           3.9243436    -1.7006997    -0.7220497
H           3.0936664    -2.3862531    -2.1442129
H           3.0480132    -3.2501940    -0.5981216
C           1.8401481    -0.4075147     0.1659919
C           5.4974587     1.7027208     0.9906181
H           6.4015665     2.2621834     1.2146160
C           4.9248232     1.7801569    -0.2802380
H           5.3765097     2.4056122    -1.0453915
C           3.7664596     1.0586218    -0.5712346
H           3.3197342     1.1207760    -1.5602306
C           3.1737154     0.2545673     0.4107282
C           3.7347586     0.2026497     1.6927213
H           3.2517835    -0.3897479     2.4646189
C           4.9010245     0.9127050     1.9759551
H           5.3379582     0.8575416     2.9692649
O           0.8316201     0.0158842     0.7000780
C          -0.7737773    -3.5088669    -1.8441814
H          -1.1626349    -4.4330967    -2.2468749
N           0.5715716    -3.3680511    -1.5213056
C           0.6556081    -2.1481274    -1.0701736
O          -0.5070929    -1.4603593    -1.0704788
C          -1.4277818    -2.3569414    -1.5682529
H          -2.4449659    -2.0068747    -1.6315452
25
077_C11H10N2O2_0-5-12-10 (90,) energy =    -685.1221859
N           1.7884083    -1.2851580    -0.6347168
C           2.9856159    -2.0959441    -0.9079313
H           3.8708277    -1.5156776    -0.6608137
H           3.0059123    -2.3736463    -1.9642744
H           2.9649255    -3.0142794    -0.3143519
C           1.8238602    -0.0636002     0.0516718
C           5.6093336     1.7257985     1.0607820
H           6.5484904     2.2022967     1.3281037
C           5.0376979     1.9589450    -0.1914250
H           5.5282714     2.6204213    -0.9002931
C           3.8311705     1.3484917    -0.5360387
H           3.3829030     1.5372970    -1.5079216
C           3.1913244     0.4954419     0.3714416
C           3.7603523     0.2733248     1.6313293
H           3.2550298    -0.3711196     2.3457022
C           4.9680080     0.8835663     1.9712700
H           5.4048302     0.7048440     2.9500084
O           0.8199075     0.5392107     0.3826336
C          -0.8454014    -3.2840846    -1.7152781
H          -1.2403648    -4.2172710    -2.0905131
N           0.5059079    -3.1336037    -1.4249449
C           0.5969707    -1.9027993    -1.0029323
O          -0.5672966    -1.2189698    -0.9893331
C          -1.4960462    -2.1279754    -1.4505230
H          -2.5139332    -1.7785606    -1.5048270
25
077_C11H10N2O2_0-5-12-10 (105,) energy =    -685.1226556
N           1.7505521    -1.3765677    -0.6722112
C           2.9556781    -2.1736056    -0.9503292
H           3.8288985    -1.6347461    -0.5920246
H           3.0466267    -2.3557391    -2.0248462
H           2.8830433    -3.1398904    -0.4451974
C           1.7869310    -0.0372839    -0.2565315
C           5.5258324     1.5984465     1.1174092
H           6.4587706     2.0305038     1.4688572
C           5.0568973     1.8938445    -0.1643679
H           5.6237046     2.5557650    -0.8133842
C           3.8563540     1.3447540    -0.6150528
H           3.4815921     1.5870343    -1.6056632
C           3.1215093     0.4886538     0.2137278
C           3.5963889     0.1887231     1.4965589
H           3.0278681    -0.4751191     2.1426776
C           4.7922486     0.7487517     1.9476061
H           5.1505688     0.5203730     2.9476784
O           0.8062262     0.6834933    -0.2711971
C          -0.8716428    -3.3564834    -1.8167054
H          -1.2564312    -4.2104693    -2.3554404
N           0.4907943    -3.0818110    -1.7706927
C           0.5641077    -1.9971519    -1.0514148
O          -0.6223269    -1.5280705    -0.6073195
C          -1.5458940    -2.4153810    -1.1164467
H          -2.5787420    -2.2062689    -0.8912955
25
077_C11H10N2O2_0-5-12-10 (120,) energy =    -685.1241499
N           1.7888735    -1.3878244    -0.6786257
C           2.9754566    -2.2325340    -0.8877624
H           3.8669946    -1.6616763    -0.6408537
H           3.0202122    -2.5565183    -1.9309848
H           2.9193083    -3.1217565    -0.2538667
C           1.8551807    -0.0065676    -0.4279355
C           5.5013006     1.6161193     1.1777555
H           6.4133758     2.0443641     1.5844447
C           5.0358087     2.0213486    -0.0753289
H           5.5861091     2.7637825    -0.6467057
C           3.8600608     1.4800825    -0.5939293
H           3.4787232     1.8081549    -1.5564488
C           3.1504880     0.5164619     0.1330626
C           3.6258334     0.1027963     1.3843096
H           3.0771970    -0.6461490     1.9494939
C           4.7917068     0.6613185     1.9089354
H           5.1466301     0.3490647     2.8872797
O           0.9241749     0.7447024    -0.6554178
C          -0.8910473    -3.3410439    -1.7364090
H          -1.3053257    -4.1993966    -2.2455061
N           0.4777212    -3.0934729    -1.7266399
C           0.5889135    -1.9939100    -1.0370069
O          -0.5779859    -1.4911341    -0.5763383
C          -1.5304666    -2.3686757    -1.0459004
H          -2.5542324    -2.1313152    -0.8075475
25
077_C11H10N2O2_0-5-12-10 (135,) energy =    -685.1256581
N           1.8243386    -1.4160111    -0.6863092
C           2.9821822    -2.3116577    -0.8418305
H           3.8959989    -1.7437641    -0.6847206
H           2.9825899    -2.7400928    -1.8474908
H           2.9284504    -3.1302309    -0.1182342
C           1.9421313    -0.0159962    -0.5829097
C           5.4599965     1.6598555     1.2290278
H           6.3392669     2.1054275     1.6863172
C           4.9795239     2.1518507     0.0127846
H           5.4847855     2.9788272    -0.4783924
C           3.8454259     1.5889510    -0.5692079
H           3.4454699     1.9801601    -1.4995806
C           3.1962797     0.5135095     0.0509395
C           3.6843771     0.0190999     1.2682703
H           3.1752200    -0.8065432     1.7580486
C           4.8067468     0.5988447     1.8596751
H           5.1704943     0.2225697     2.8118715
O           1.0708031     0.7392487    -0.9761953
C          -0.9294517    -3.3094570    -1.6635745
H          -1.3789981    -4.1728032    -2.1327364
N           0.4485898    -3.1182909    -1.6644010
C           0.6058891    -1.9935124    -1.0272942
O          -0.5392829    -1.4230673    -0.5900476
C          -1.5278447    -2.2807177    -1.0194418
H          -2.5409468    -1.9907359    -0.7940178
25
077_C11H10N2O2_0-5-12-10 (150,) energy =    -685.1262695
N           1.5629430    -1.1954683    -0.4289605
C           1.0647701     0.1538186    -0.7462313
H           1.0499904     0.3107010    -1.8289053
H           1.7116837     0.8922831    -0.2781192
H           0.0456940     0.2663325    -0.3671627
C           2.5626963    -1.4278347     0.5417881
C           5.9052928     1.2538097     0.8469385
H           6.7653535     1.9117342     0.9379617
C           5.3881256     0.6181951     1.9789605
H           5.8448490     0.7800748     2.9513764
C           4.2921227    -0.2328296     1.8612658
H           3.8950333    -0.7557573     2.7253517
C           3.6848043    -0.4353798     0.6139504
C           4.2140096     0.1972683    -0.5202610
H           3.7735186     0.0150828    -1.4960849
C           5.3231011     1.0346595    -0.4031443
H           5.7352316     1.5113713    -1.2882452
O           2.5445564    -2.4114004     1.2610991
C          -0.9383228    -3.3721183    -1.4929443
H          -1.9398968    -3.5849075    -1.8381638
N          -0.5490830    -2.0823240    -1.1448535
C           0.6929491    -2.2213965    -0.7797309
O           1.1726512    -3.4829152    -0.8644866
C           0.1005933    -4.2208660    -1.3158952
H           0.2645132    -5.2800438    -1.4277572
25
077_C11H10N2O2_0-5-12-10 (165,) energy =    -685.1254119
N           1.5264640    -1.1406607    -0.4445848
C           1.0028450     0.1821885    -0.8288011
H           1.0596664     0.3180034    -1.9130940
H           1.5857034     0.9547785    -0.3312518
H          -0.0441535     0.2641755    -0.5252454
C           2.4443655    -1.2971176     0.6234898
C           5.9647558     1.1606369     0.8272335
H           6.8716719     1.7558182     0.8920809
C           5.4954028     0.4740072     1.9503075
H           6.0382628     0.5303363     2.8897208
C           4.3379562    -0.2942755     1.8641327
H           3.9722417    -0.8539011     2.7185585
C           3.6172577    -0.3630543     0.6620469
C           4.1098840     0.3066578    -0.4683105
H           3.6019018     0.2102323    -1.4222479
C           5.2759586     1.0669068    -0.3833536
H           5.6518662     1.5768689    -1.2659957
O           2.3333255    -2.2050487     1.4289186
C          -0.8580089    -3.4339147    -1.5314495
H          -1.8306299    -3.6923822    -1.9249167
N          -0.5218119    -2.1167181    -1.2327391
C           0.6977846    -2.2022502    -0.7857106