15
166_C5H8O2_1-0-10-12 (-165,) energy =    -345.7715465
O           1.2679134    -0.7585525    -0.2181342
C           2.4968698    -1.3318823    -0.1078355
C           3.5671356    -0.2699150    -0.0095604
H           3.3868317     0.3670432     0.8626968
H           3.5422033     0.3747634    -0.8943319
H           4.5440690    -0.7467599     0.0753097
O           2.6815940    -2.5267125    -0.0802637
C          -0.3307330    -1.9744969    -1.7146264
H          -0.7141935    -2.9734220    -1.9018750
H           0.1999501    -1.5272968    -2.5499828
C           0.1728146    -1.6571277    -0.3384066
H           0.1669935    -2.4315576     0.4213574
C          -1.1048635    -1.0384053    -0.8047893
H          -1.0795221     0.0208438    -1.0432178
H          -2.0341216    -1.3809191    -0.3584082
15
166_C5H8O2_1-0-10-12 (-150,) energy =    -345.7710320
O           1.2352997    -0.7577153    -0.0852612
C           2.4709139    -1.3247875    -0.1708756
C           3.5438631    -0.2720006    -0.0164066
H           3.4419921     0.2297486     0.9515782
H           3.4374412     0.4933831    -0.7922332
H           4.5254668    -0.7412534    -0.0889967
O           2.6587729    -2.5076370    -0.3338620
C          -0.2728846    -2.0111598    -1.6502865
H          -0.6601570    -3.0118783    -1.8181738
H           0.3297029    -1.6178298    -2.4634520
C           0.1335038    -1.6389933    -0.2565522
H           0.0493726    -2.3780638     0.5345463
C          -1.0932873    -1.0203945    -0.8488273
H          -1.0263458     0.0266156    -1.1296008
H          -2.0607064    -1.3244311    -0.4591354
15
166_C5H8O2_1-0-10-12 (-135,) energy =    -345.7698313
O           1.2244871    -0.7953511     0.0342262
C           2.4549786    -1.3151673    -0.2393885
C           3.5209253    -0.2657747    -0.0213957
H           3.4957701     0.0851835     1.0155919
H           3.3350766     0.6020895    -0.6626650
H           4.4997299    -0.6913198    -0.2447669
O           2.6489015    -2.4544881    -0.5915196
C          -0.2282575    -2.0573760    -1.5886505
H          -0.6439775    -3.0503650    -1.7328979
H           0.4445260    -1.7357084    -2.3769821
C           0.1007049    -1.6365553    -0.1884802
H          -0.0732204    -2.3312534     0.6285603
C          -1.0583993    -1.0001132    -0.8952108
H          -0.9275240     0.0300911    -1.2134420
H          -2.0622048    -1.2462119    -0.5600491
15
166_C5H8O2_1-0-10-12 (-120,) energy =    -345.7679637
O           1.2341104    -0.8597599     0.1342754
C           2.4496806    -1.2903439    -0.3100302
C           3.5003145    -0.2458693    -0.0063701
H           3.5316013    -0.0458995     1.0697046
H           3.2518544     0.6969538    -0.5047783
H           4.4734053    -0.6014541    -0.3465385
O           2.6518708    -2.3510396    -0.8513646
C          -0.2148610    -2.1127137    -1.5295026
H          -0.6827168    -3.0871101    -1.6382185
H           0.5094561    -1.8807946    -2.3016774
C           0.0757509    -1.6380605    -0.1366551
H          -0.1904027    -2.2733915     0.7035993
C          -1.0086608    -0.9732163    -0.9370218
H          -0.7960045     0.0281061    -1.3005211
H          -2.0408576    -1.1351181    -0.6381734
15
166_C5H8O2_1-0-10-12 (-105,) energy =    -345.7658223
O           1.2603226    -0.9323315     0.1788808
C           2.4510036    -1.2364484    -0.4088318
C           3.4930292    -0.2281948     0.0237032
H           3.5768326    -0.2175927     1.1153045
H           3.1973160     0.7785848    -0.2893168
H           4.4541785    -0.4883962    -0.4208237
O           2.6526734    -2.1703029    -1.1485482
C          -0.2399841    -2.1955751    -1.4810471
H          -0.7808732    -3.1375191    -1.5184522
H           0.5073605    -2.0817293    -2.2552335
C           0.0629461    -1.6407286    -0.1190372
H          -0.2775825    -2.1875189     0.7555226
C          -0.9555394    -0.9594649    -0.9921888
H          -0.6596093    -0.0082263    -1.4257766
H          -2.0023359    -1.0172404    -0.7056854
15
166_C5H8O2_1-0-10-12 (-90,) energy =    -345.7644156
O           1.2837037    -0.9510372     0.1810330
C           2.4362976    -1.1132079    -0.5190092
C           3.5133107    -0.2410345     0.0901260
H           3.6570793    -0.4986168     1.1444337
H           3.2137852     0.8114386     0.0499261
H           4.4449360    -0.3827335    -0.4586194
O           2.5922947    -1.8316820    -1.4791565
C          -0.2775440    -2.3109221    -1.4035803
H          -0.8739644    -3.2162251    -1.3209331
H           0.4661997    -2.3264912    -2.1873401
C           0.0602724    -1.6174863    -0.1140086
H          -0.3237627    -2.0420961     0.8085866
C          -0.9210702    -0.9844041    -1.0601308
H          -0.5731180    -0.1139841    -1.6096612
H          -1.9680206    -0.9461587    -0.7712937
15
166_C5H8O2_1-0-10-12 (-75,) energy =    -345.7646100
O           1.2898886    -0.9391891     0.1996129
C           2.3905640    -0.9733076    -0.5891460
C           3.5410116    -0.2935177     0.1214085
H           3.7627861    -0.8101833     1.0609663
H           3.2731765     0.7381160     0.3719177
H           4.4196732    -0.3029128    -0.5243349
O           2.4516984    -1.4517988    -1.6995157
C          -0.2685626    -2.4091319    -1.3240403
H          -0.8922547    -3.2828131    -1.1507550
H           0.4818817    -2.5212424    -2.0927112
C           0.0560157    -1.5810181    -0.1133420
H          -0.3773376    -1.8940100     0.8313109
C          -0.8793793    -1.0289610    -1.1473255
H          -0.4898815    -0.2488415    -1.7951849
H          -1.9304187    -0.9242481    -0.8922759
15
166_C5H8O2_1-0-10-12 (-60,) energy =    -345.7658720
O           1.2875833    -0.9650210     0.2674656
C           2.3259975    -0.8682259    -0.5932888
C           3.5387441    -0.3192379     0.1252824
H           3.8270505    -0.9867500     0.9439594
H           3.3067864     0.6559600     0.5657374
H           4.3630463    -0.2208113    -0.5817836
O           2.2890114    -1.1561949    -1.7697012
C          -0.2571099    -2.4576471    -1.2474274
H          -0.9121037    -3.3018420    -1.0460839
H           0.5160586    -2.6356410    -1.9810926
C           0.0379471    -1.5569928    -0.0832173
H          -0.4508125    -1.7947234     0.8558137
C          -0.8305005    -1.0477353    -1.1927846
H          -0.3896521    -0.3358153    -1.8830594
H          -1.8870429    -0.8953381    -0.9896662
15
166_C5H8O2_1-0-10-12 (-45,) energy =    -345.7669036
O           1.3085908    -1.0437264     0.3053832
C           2.2894944    -0.8097339    -0.5939103
C           3.5347004    -0.3249236     0.1147475
H           3.8777326    -1.0772341     0.8325554
H           3.3169910     0.5883756     0.6780729
H           4.3156209    -0.1302536    -0.6210316
O           2.1864639    -0.9576956    -1.7926937
C          -0.2562813    -2.4889126    -1.2062177
H          -0.9467004    -3.3042492    -1.0051040
H           0.5397875    -2.7185934    -1.9019362
C           0.0283346    -1.5505464    -0.0705435
H          -0.5022929    -1.7266096     0.8588979
C          -0.7781065    -1.0585836    -1.2350284
H          -0.2963559    -0.3966872    -1.9446615
H          -1.8347139    -0.8664627    -1.0676343
15
166_C5H8O2_1-0-10-12 (-30,) energy =    -345.7668299
O           1.3387689    -1.1345303     0.3168437
C           2.2695810    -0.7582559    -0.5871948
C           3.5315456    -0.3217977     0.1234409
H           3.9108613    -1.1333299     0.7529064
H           3.3197301     0.5287162     0.7797875
H           4.2829776    -0.0418719    -0.6155497
O           2.1218644    -0.7755639    -1.7902987
C          -0.2762829    -2.5164984    -1.1593365
H          -0.9944444    -3.3060525    -0.9538403
H           0.5339564    -2.7934720    -1.8234670
C           0.0235770    -1.5457488    -0.0549282
H          -0.5252443    -1.6614269     0.8732299
C          -0.7461722    -1.0739934    -1.2551693
H          -0.2418418    -0.4543269    -1.9843996
H          -1.7977070    -0.8453566    -1.1000547
15
166_C5H8O2_1-0-10-12 (-15,) energy =    -345.7657607
O           1.3701173    -1.1913579     0.2706308
C           2.2639323    -0.6742484    -0.6020972
C           3.5398996    -0.3131473     0.1262918
H           3.9395713    -1.1895179     0.6466504
H           3.3377302     0.4518297     0.8833445
H           4.2715227     0.0598579    -0.5911491
O           2.0844735    -0.5376793    -1.7926373
C          -0.3005160    -2.5369343    -1.1356545
H          -1.0429786    -3.2968169    -0.9069642
H           0.5153437    -2.8713828    -1.7684295
C           0.0267326    -1.5211419    -0.0799544
H          -0.5278858    -1.5663782     0.8510228
C          -0.7218848    -1.0900319    -1.3111814
H          -0.2022891    -0.5186923    -2.0667728
H          -1.7667151    -0.8265865    -1.1645420
15
166_C5H8O2_1-0-10-12 (0,) energy =    -345.7645993
O           1.3868148    -1.2151846     0.2181731
C           2.2485481    -0.5620212    -0.5972867
C           3.5570781    -0.3367971     0.1293238
H           3.9685719    -1.2913493     0.4728502
H           3.3934009     0.2855601     1.0153355
H           4.2627833     0.1529674    -0.5424237
O           2.0265296    -0.2225835    -1.7379739
C          -0.3278954    -2.5838985    -1.0790198
H          -1.0942433    -3.3022068    -0.8005089
H           0.4864321    -2.9958244    -1.6683481
C           0.0269217    -1.4990837    -0.1034328
H          -0.5307235    -1.4559521     0.8264845
C          -0.7030093    -1.1438347    -1.3693336
H          -0.1620148    -0.6381631    -2.1555181
H          -1.7409580    -0.8421268    -1.2501782
15
166_C5H8O2_1-0-10-12 (15,) energy =    -345.7643692
O           1.7560015    -1.5692525    -0.8959152
C           2.1460682    -0.7273418     0.0957012
C           3.5995322    -0.3577696    -0.1104032
H           3.7285379     0.1395533    -1.0773802
H           4.2209855    -1.2590256    -0.1222202
H           3.9202016     0.3055683     0.6935053
O           1.4542001    -0.3241305     1.0019945
C          -0.6177081    -1.3975741    -1.7698655
H          -1.2086040    -1.9498853    -2.4956132
H          -0.3985343    -0.3717840    -2.0534164
C           0.4522189    -2.1303249    -1.0123751
H           0.5635372    -3.1941897    -1.1995424
C          -0.7815053    -1.6736222    -0.2881553
H          -0.6970172    -0.8392058     0.3931267
H          -1.4724206    -2.4527493     0.0243028
15
166_C5H8O2_1-0-10-12 (30,) energy =    -345.7654418
O           1.7452865    -1.5605745    -0.9162126
C           2.1769572    -0.8547236     0.1652214
C           3.5636220    -0.3163355    -0.1128573
H           3.5436271     0.3478752    -0.9831802
H           4.2471886    -1.1388284    -0.3472633
H           3.9218510     0.2276853     0.7616790
O           1.5608854    -0.6883223     1.1913367
C          -0.6028374    -1.4447426    -1.8263475
H          -1.2133141    -2.0530024    -2.4882925
H          -0.3481231    -0.4648918    -2.2206484
C           0.4429689    -2.1271922    -0.9937007
H           0.5248167    -3.2084834    -1.0634786
C          -0.7698255    -1.5575157    -0.3228544
H          -0.6544001    -0.6589625     0.2682662
H          -1.4883189    -2.2687044     0.0759993
15
166_C5H8O2_1-0-10-12 (45,) energy =    -345.7673532
O           1.7315484    -1.5130703    -0.9674795
C           2.2121917    -0.9597846     0.1823551
C           3.5408870    -0.2922546    -0.0943930
H           3.4173647     0.5011301    -0.8389485
H           4.2481714    -1.0185444    -0.5079891
H           3.9360295     0.1255100     0.8321170
O           1.6650167    -1.0090819     1.2581277
C          -0.6053211    -1.5017664    -1.8660792
H          -1.2376712    -2.1660021    -2.4487813
H          -0.3431321    -0.5731110    -2.3649436
C           0.4429753    -2.1124825    -0.9853415
H           0.5183751    -3.1959842    -0.9407180
C          -0.7464543    -1.4591549    -0.3554946
H          -0.6009650    -0.5052547     0.1370921
H          -1.4720818    -2.1056540     0.1297822
15
166_C5H8O2_1-0-10-12 (60,) energy =    -345.7692585
O           1.6966394    -1.4269622    -1.0041427
C           2.2462982    -1.0377704     0.1818502
C           3.5341167    -0.2869514    -0.0696313
H           3.3417808     0.5989949    -0.6837909
H           4.2362633    -0.9194201    -0.6227435
H           3.9730138     0.0093202     0.8835991
O           1.7701659    -1.2750530     1.2664060
C          -0.6225653    -1.5633042    -1.8910689
H          -1.2526999    -2.2840529    -2.4046347
H          -0.3729393    -0.6820308    -2.4748665
C           0.4357262    -2.0805322    -0.9668472
H           0.5352383    -3.1527047    -0.8180680
C          -0.7569278    -1.3870921    -0.3893143
H          -0.6120660    -0.3903459     0.0135800
H          -1.4755555    -1.9904314     0.1574717
15
166_C5H8O2_1-0-10-12 (75,) energy =    -345.7706654
O           1.6489817    -1.3182006    -1.0037891
C           2.2864776    -1.0921944     0.1793232
C           3.5413817    -0.2817771    -0.0492986
H           3.2922116     0.6782397    -0.5134114
H           4.2110582    -0.8105382    -0.7355730
H           4.0437762    -0.1145544     0.9039418
O           1.8939851    -1.5014447     1.2465076
C          -0.6324332    -1.6189099    -1.9084549
H          -1.2367249    -2.3958184    -2.3681891
H          -0.3973049    -0.7820342    -2.5595701
C           0.4210287    -2.0291887    -0.9300429
H           0.5560360    -3.0793347    -0.6864721
C          -0.7997933    -1.3239505    -0.4282943
H          -0.6832631    -0.2928192    -0.1091441
H          -1.5155800    -1.8977305     0.1529024
15
166_C5H8O2_1-0-10-12 (90,) energy =    -345.7714154
O           1.5961351    -1.2079715    -0.9592231
C           2.3356686    -1.1364357     0.1813892
C           3.5586215    -0.2764086    -0.0369637
H           3.2610379     0.7342758    -0.3354982
H           4.1695046    -0.6884183    -0.8469378
H           4.1417984    -0.2350682     0.8834600
O           2.0423598    -1.7017076     1.2091522
C          -0.6266556    -1.6664739    -1.9161593
H          -1.1898316    -2.4938274    -2.3384754
H          -0.3935428    -0.8712330    -2.6181369
C           0.3993204    -1.9698505    -0.8735438
H           0.5653825    -2.9914014    -0.5463912
C          -0.8625684    -1.2707887    -0.4690709
H          -0.7875545    -0.2154350    -0.2242506
H          -1.5857210    -1.8236441     0.1235207
15
166_C5H8O2_1-0-10-12 (105,) energy =    -345.7716010
O           1.5426625    -1.1122216    -0.8823531
C           2.3887044    -1.1826394     0.1796838
C           3.5753583    -0.2716530    -0.0320632
H           3.2392622     0.7634540    -0.1534947
H           4.1072247    -0.5511523    -0.9474285
H           4.2461426    -0.3457213     0.8244014
O           2.2055156    -1.8914885     1.1426651
C          -0.6069732    -1.7112262    -1.9164046
H          -1.1272033    -2.5807407    -2.3081143
H          -0.3593670    -0.9581719    -2.6587600
C           0.3710262    -1.9146464    -0.8060722
H           0.5545300    -2.9036974    -0.4009748
C          -0.9282499    -1.2251566    -0.5140772
H          -0.8905752    -0.1537815    -0.3401462
H          -1.6694442    -1.7565291     0.0761182
15
166_C5H8O2_1-0-10-12 (120,) energy =    -345.7715014
O           1.4877381    -1.0379966    -0.7894112
C           2.4336820    -1.2372113     0.1650787
C           3.5828982    -0.2753413    -0.0272568
H           3.2246605     0.7574042     0.0376481
H           4.0228978    -0.4063091    -1.0212704
H           4.3371444    -0.4548574     0.7394512
O           2.3566173    -2.0775415     1.0325614
C          -0.5819252    -1.7604339    -1.9109116
H          -1.0640442    -2.6644390    -2.2724716
H          -0.3042935    -1.0530166    -2.6868393
C           0.3341802    -1.8692753    -0.7348509
H           0.5179273    -2.8236150    -0.2561380
C          -0.9917770    -1.1881611    -0.5660062
H          -0.9801778    -0.1069475    -0.4643519
H          -1.7582879    -1.6927718     0.0157168
15
166_C5H8O2_1-0-10-12 (135,) energy =    -345.7713532
O           1.4363264    -0.9676815    -0.6915899
C           2.4722854    -1.2810166     0.1282319
C           3.5843620    -0.2698765    -0.0258409
H           3.2197899     0.7320560     0.2236674
H           3.9288677    -0.2427443    -1.0647850
H           4.4109495    -0.5382626     0.6326784
O           2.4912985    -2.2388997     0.8681820
C          -0.5504489    -1.8061021    -1.8959798
H          -1.0035199    -2.7387495    -2.2208059
H          -0.2352675    -1.1493090    -2.7014885
C           0.2980221    -1.8218767    -0.6634973
H           0.4703944    -2.7400049    -0.1156239
C          -1.0403476    -1.1481402    -0.6187640
H          -1.0442778    -0.0624307    -0.5916745
H          -1.8351339    -1.6210055    -0.0482541
15
166_C5H8O2_1-0-10-12 (150,) energy =    -345.7713239
O           1.3848308    -0.9026018    -0.5771139
C           2.4947363    -1.3140764     0.0876516
C           3.5809943    -0.2687281    -0.0132101
H           3.2341526     0.6779023     0.4140784
H           3.8285715    -0.0818930    -1.0632849
H           4.4663087    -0.6144968     0.5212011
O           2.5871775    -2.3681716     0.6758166
C          -0.5117568    -1.8505998    -1.8632194
H          -0.9403368    -2.8068350    -2.1507396
H          -0.1518434    -1.2459510    -2.6905043
C           0.2607422    -1.7760318    -0.5818678
H           0.4086167    -2.6590656     0.0273483
C          -1.0789267    -1.1129368    -0.6634214
H          -1.0891743    -0.0278757    -0.7092068
H          -1.9049809    -1.5527106    -0.1112337
15
166_C5H8O2_1-0-10-12 (165,) energy =    -345.7714309
O           1.3481314    -0.8418261    -0.4609518
C           2.5160237    -1.3316893     0.0298817
C           3.5865643    -0.2660858    -0.0055835
H           3.2777034     0.5985459     0.5910226
H           3.7377910     0.0829024    -1.0323640
H           4.5173993    -0.6751002     0.3883861
O           2.6612286    -2.4607502     0.4411079
C          -0.4549775    -1.8943905    -1.8200883
H          -0.8630862    -2.8702093    -2.0687807
H          -0.0473084    -1.3426773    -2.6620777
C           0.2372500    -1.7302483    -0.4999893
H           0.3471030    -2.5780017     0.1652738
C          -1.0939751    -1.0820880    -0.7075577
H          -1.1024328    -0.0025666    -0.8263871
H          -1.9517494    -1.4876951    -0.1782614
15
166_C5H8O2_1-0-10-12 (180,) energy =    -345.7715717
O           1.3043356    -0.7953677    -0.3420804
C           2.5116078    -1.3408225    -0.0384399
C           3.5777682    -0.2708028    -0.0027394
H           3.3245569     0.4891482     0.7438222
H           3.6395148     0.2331333    -0.9729445
H           4.5385236    -0.7249866     0.2414625
O           2.6859568    -2.5176753     0.1817793
C          -0.3982517    -1.9392296    -1.7692448
H          -0.7922078    -2.9285824    -1.9844239
H           0.0678390    -1.4403615    -2.6138604
C           0.2040737    -1.6937065    -0.4178476
H           0.2626551    -2.5039302     0.2996945
C          -1.1067019    -1.0602163    -0.7534638
H          -1.1039775     0.0102663    -0.9365207
H          -1.9987002    -1.4338539    -0.2585470
