15
324_C6H8O_1-0-11-9 (-165,) energy =    -308.6550544
C           2.5926498    -1.0891655    -0.8288709
C           2.6059425    -2.5076528    -0.2441854
H           1.7941869    -3.1012622    -0.6773314
H           2.4759489    -2.4929008     0.8431143
H           3.5517704    -3.0132774    -0.4586245
H           1.6244384    -0.6104964    -0.6352564
H           2.6767392    -1.1582309    -1.9238454
C           5.1598816     1.4042890     0.2477441
H           5.6416642     2.3614747     0.3928960
C           3.8764237     1.1558560    -0.3422860
H           3.1875701     1.8904636    -0.7372048
C           3.6779517    -0.1947219    -0.3057755
O           4.7691446    -0.7978192     0.2632871
C           5.6547663     0.1868579     0.5965122
H           6.5648839    -0.1445419     1.0726591
15
324_C6H8O_1-0-11-9 (-150,) energy =    -308.6561068
C           2.6483833    -1.1175058    -0.8991634
C           2.5441094    -2.4782951    -0.1951304
H           1.7637396    -3.0892444    -0.6610622
H           2.2974151    -2.3593150     0.8655345
H           3.4895947    -3.0244559    -0.2589600
H           1.6894790    -0.5877944    -0.8530701
H           2.8478225    -1.2895705    -1.9680021
C           5.1294300     1.4048669     0.2942350
H           5.5663622     2.3695418     0.5128090
C           3.8257859     1.1405457    -0.2437324
H           3.0742673     1.8677746    -0.5199273
C           3.7029910    -0.2157635    -0.3369693
O           4.8597909    -0.8074874     0.1011641
C           5.7099257     0.1904363     0.4846255
H           6.6643462    -0.1315727     0.8724426
15
324_C6H8O_1-0-11-9 (-135,) energy =    -308.6569920
C           2.7044150    -1.1452706    -0.9556443
C           2.4935301    -2.4377137    -0.1504477
H           1.7358996    -3.0683441    -0.6280222
H           2.1618465    -2.2171759     0.8700471
H           3.4231445    -3.0109856    -0.0849281
H           1.7672332    -0.5812440    -1.0259085
H           2.9810920    -1.4117303    -1.9867681
C           5.1067917     1.3937094     0.3533329
H           5.5020541     2.3561677     0.6476877
C           3.7953692     1.1088750    -0.1558255
H           2.9943658     1.8146387    -0.3292200
C           3.7420125    -0.2359220    -0.3809213
O           4.9460877    -0.8020122    -0.0473825
C           5.7584077     0.2016275     0.3986441
H           6.7466312    -0.1003846     0.7105663
15
324_C6H8O_1-0-11-9 (-120,) energy =    -308.6573862
C           2.7501160    -1.1769489    -1.0101156
C           2.4429393    -2.3904439    -0.1151504
H           1.7005490    -3.0418409    -0.5892957
H           2.0493787    -2.0715301     0.8560682
H           3.3480206    -2.9790580     0.0648159
H           1.8373497    -0.5962609    -1.1856646
H           3.0872318    -1.5331007    -1.9940385
C           5.0788728     1.3719823     0.4070656
H           5.4357440     2.3235451     0.7762910
C           3.7644835     1.0641500    -0.0813573
H           2.9216271     1.7374520    -0.1586418
C           3.7736916    -0.2530079    -0.4369402
O           5.0169493    -0.7815684    -0.1979146
C           5.7930791     0.2191759     0.3141780
H           6.8094384    -0.0534063     0.5547514
15
324_C6H8O_1-0-11-9 (-105,) energy =    -308.6572859
C           2.7980465    -1.2136427    -1.0568652
C           2.3923893    -2.3384405    -0.0863770
H           1.6644263    -3.0103845    -0.5547491
H           1.9434737    -1.9255682     0.8233619
H           3.2645129    -2.9318005     0.2071254
H           1.9132498    -0.6326966    -1.3417924
H           3.1955191    -1.6548928    -1.9805455
C           5.0543865     1.3433277     0.4589687
H           5.3763903     2.2771768     0.8987706
C           3.7388065     1.0065453    -0.0059826
H           2.8589559     1.6353324     0.0114777
C           3.8040345    -0.2687930    -0.4870787
O           5.0821763    -0.7462627    -0.3420692
C           5.8245602     0.2464586     0.2313721
H           6.8651433     0.0145197     0.4003002
15
324_C6H8O_1-0-11-9 (-90,) energy =    -308.6567671
C           2.8535701    -1.2546509    -1.0826011
C           2.3301830    -2.2794380    -0.0582706
H           1.6162016    -2.9661653    -0.5271747
H           1.8267610    -1.7759331     0.7738227
H           3.1527481    -2.8727333     0.3550976
H           2.0097344    -0.6880123    -1.4942382
H           3.3215784    -1.7794369    -1.9244065
C           5.0406440     1.3127442     0.5160660
H           5.3320376     2.2251812     1.0178537
C           3.7238269     0.9361172     0.0882308
H           2.8119685     1.5061883     0.2044935
C           3.8363280    -0.2864344    -0.5086790
O           5.1455353    -0.6948798    -0.4663156
C           5.8596792     0.2892312     0.1548057
H           6.9202179     0.1108923     0.2473434
15
324_C6H8O_1-0-11-9 (-75,) energy =    -308.6560905
C           2.9137032    -1.3035388    -1.0996602
C           2.2527205    -2.2195502    -0.0526406
H           1.5699334    -2.9287892    -0.5344568
H           1.6794315    -1.6335402     0.6735170
H           3.0066388    -2.7918270     0.4985346
H           2.1322373    -0.7630865    -1.6488856
H           3.4538439    -1.9083089    -1.8367598
C           5.0388356     1.2855122     0.5525293
H           5.3054965     2.1740081     1.1082150
C           3.7215050     0.8456014     0.1936954
H           2.7852968     1.3352723     0.4257261
C           3.8698237    -0.3144879    -0.5113722
O           5.2031579    -0.6238352    -0.6014141
C           5.8953946     0.3586558     0.0458326
H           6.9696055     0.2533914     0.0445863
15
324_C6H8O_1-0-11-9 (-60,) energy =    -308.6557070
C           2.9769046    -1.3679428    -1.0921466
C           2.1490823    -2.1531716    -0.0602236
H           1.4893362    -2.8715145    -0.5599072
H           1.5238274    -1.4820595     0.5386539
H           2.7998516    -2.7047651     0.6264808
H           2.2948035    -0.8619447    -1.7891897
H           3.5781083    -2.0579472    -1.6942069
C           5.0401041     1.2592389     0.5844063
H           5.2869113     2.1267976     1.1808983
C           3.7345178     0.7274461     0.3201876
H           2.7898867     1.1150893     0.6770835
C           3.9069750    -0.3678469    -0.4773605
O           5.2447584    -0.5456605    -0.7205416
C           5.9151143     0.4502978    -0.0708756
H           6.9890945     0.4388383    -0.1774006
15
324_C6H8O_1-0-11-9 (-45,) energy =    -308.6558568
C           2.7020201    -1.5164321     0.1254197
C           2.3166490    -1.9499245    -1.2967729
H           1.5312955    -2.7131217    -1.2677407
H           3.1740475    -2.3759960    -1.8296173
H           1.9491821    -1.0996412    -1.8806815
H           3.0161437    -2.3985523     0.7022425
H           1.8248158    -1.1116486     0.6430939
C           5.5592973     0.8900818     0.0275350
H           6.5041610     1.3307071    -0.2595233
C           4.9657623    -0.3093125    -0.4899706
H           5.3755765    -0.9616492    -1.2488671
C           3.7755282    -0.4729978     0.1591398
O           3.5994694     0.5532675     1.0510418
C           4.6898895     1.3695097     0.9564961
H           4.6858893     2.2331294     1.6038756
15
324_C6H8O_1-0-11-9 (-30,) energy =    -308.6562962
C           2.6424675    -1.4501019     0.1217779
C           2.3886891    -2.0175614    -1.2802640
H           1.5803249    -2.7558265    -1.2555037
H           3.2802966    -2.5165657    -1.6763150
H           2.1085251    -1.2244679    -1.9813803
H           2.8794520    -2.2727238     0.8130169
H           1.7263900    -0.9876704     0.5096743
C           5.5316864     0.9157466     0.0107148
H           6.4584997     1.3702749    -0.3113148
C           4.8688106    -0.2167437    -0.5713221
H           5.1980351    -0.7930178    -1.4247193
C           3.7328421    -0.4261131     0.1564394
O           3.6557983     0.5061081     1.1587733
C           4.7546403     1.3104539     1.0536792
H           4.8243171     2.1047847     1.7811435
15
324_C6H8O_1-0-11-9 (-15,) energy =    -308.6567091
C           2.5957500    -1.3919051     0.1084552
C           2.4562069    -2.0727592    -1.2571223
H           1.6263683    -2.7866413    -1.2469106
H           3.3658979    -2.6232468    -1.5219310
H           2.2649021    -1.3383935    -2.0468949
H           2.7472857    -2.1534172     0.8877373
H           1.6581842    -0.8828920     0.3691657
C           5.5126188     0.9372980    -0.0104378
H           6.4191568     1.4097094    -0.3628890
C           4.7872873    -0.1313356    -0.6383317
H           5.0379608    -0.6303751    -1.5638195
C           3.7104577    -0.3966334     0.1571745
O           3.7265244     0.4412576     1.2423373
C           4.8266325     1.2424420     1.1221841
H           4.9676746     1.9648897     1.9116511
15
324_C6H8O_1-0-11-9 (0,) energy =    -308.6568889
C           2.5580363    -1.3409129     0.0801425
C           2.5149483    -2.1312634    -1.2313288
H           1.6656991    -2.8218260    -1.2351674
H           3.4287354    -2.7197321    -1.3692312
H           2.4105158    -1.4633937    -2.0934454
H           2.6192124    -2.0357447     0.9298494
H           1.6162250    -0.7903223     0.2149523
C           5.4958045     0.9611436    -0.0366582
H           6.3800223     1.4578909    -0.4115771
C           4.7184719    -0.0485727    -0.6993484
H           4.8976390    -0.4680979    -1.6792506
C           3.7013451    -0.3803489     0.1478010
O           3.8016674     0.3621112     1.2961513
C           4.8960868     1.1695365     1.1646584
H           5.1022285     1.8182770     2.0023645
15
324_C6H8O_1-0-11-9 (15,) energy =    -308.6567091
C           2.5167844    -1.2939319     0.0520351
C           2.5547600    -2.1948189    -1.1868342
H           1.6840081    -2.8579895    -1.2058234
H           3.4569278    -2.8158189    -1.1960906
H           2.5432030    -1.6034182    -2.1092263
H           2.4869517    -1.9100408     0.9606630
H           1.5837772    -0.7111614     0.0571876
C           5.4698151     0.9904408    -0.0411005
H           6.3307493     1.5193694    -0.4261102
C           4.6452275     0.0448171    -0.7398009
H           4.7588830    -0.2844213    -1.7630752
C           3.6867365    -0.3671317     0.1401821
O           3.8656607     0.2689197     1.3415654
C           4.9518143     1.0873937     1.2114169
H           5.2182933     1.6543879     2.0903867
15
324_C6H8O_1-0-11-9 (30,) energy =    -308.6562968
C           2.4916071    -1.2311757    -0.0030418
C           2.6031880    -2.2522469    -1.1419194
H           1.7120479    -2.8876510    -1.1770003
H           3.4792225    -2.8956819    -1.0092100
H           2.6945920    -1.7568494    -2.1150824
H           2.3709893    -1.7523796     0.9547791
H           1.5789006    -0.6310783    -0.1351422
C           5.4572392     1.0397938    -0.0608382
H           6.2963721     1.6022530    -0.4465350
C           4.5844335     0.1665118    -0.7931716
H           4.6299300    -0.0599676    -1.8493037
C           3.6817516    -0.3305897     0.1022768
O           3.9410774     0.1866923     1.3452259
C           5.0212353     1.0141071     1.2262717
H           5.3484798     1.4905426     2.1378423
15
324_C6H8O_1-0-11-9 (45,) energy =    -308.6558568
C           2.4563747    -1.1798337    -0.0675734
C           2.6409896    -2.3203317    -1.0795960
H           1.7375449    -2.9375136    -1.1339629
H           3.4810578    -2.9635354    -0.7975813
H           2.8393159    -1.9328454    -2.0851402
H           2.2406574    -1.5924402     0.9246926
H           1.5757418    -0.5835447    -0.3476487
C           5.4391816     1.0716251    -0.0780171
H           6.2570187     1.6691022    -0.4568148
C           4.5044670     0.2937247    -0.8394845
H           4.4724186     0.1873986    -1.9151583
C           3.6571071    -0.2936616     0.0559277
O           4.0105903     0.0786693     1.3271908
C           5.0927549     0.9050924     1.2261598
H           5.4883335     1.2749983     2.1597789
15
324_C6H8O_1-0-11-9 (60,) energy =    -308.6557070
C           2.4168191    -1.1301430    -0.1297762
C           2.6880289    -2.3769304    -0.9892578
H           1.7851459    -2.9923274    -1.0732508
H           3.4820404    -2.9903681    -0.5504456
H           3.0013444    -2.0991276    -2.0015083
H           2.0845687    -1.4289540     0.8704033
H           1.5887398    -0.5611179    -0.5743571
C           5.4131655     1.1025693    -0.0486792
H           6.2142914     1.7370824    -0.4021817
C           4.4114281     0.4449495    -0.8368631
H           4.3007341     0.4837617    -1.9121354
C           3.6125114    -0.2427583     0.0316241
O           4.0634396    -0.0500308     1.3122280
C           5.1534406     0.7688679     1.2438422
H           5.6161011     1.0126424     2.1880000
15
324_C6H8O_1-0-11-9 (75,) energy =    -308.6560905
C           2.3911795    -1.0813989    -0.2015945
C           2.7341728    -2.4193641    -0.8830853
H           1.8361213    -3.0373062    -0.9971741
H           3.4643150    -2.9834829    -0.2928738
H           3.1628072    -2.2534352    -1.8771240
H           1.9325097    -1.2673400     0.7760874
H           1.6419454    -0.5526450    -0.8044998
C           5.3913659     1.1374956    -0.0451934
H           6.1730591     1.8094600    -0.3719033
C           4.3236382     0.5946656    -0.8344548
H           4.1342948     0.7721696    -1.8845706
C           3.5759944    -0.1895816    -0.0032423
O           4.1251092    -0.1716500     1.2536319
C           5.2216135     0.6402042     1.2091522
H           5.7527989     0.7613707     2.1409095
15
324_C6H8O_1-0-11-9 (90,) energy =    -308.6567671
C           2.3843819    -1.0548071    -0.2760504
C           2.7571512    -2.4565249    -0.7952851
H           1.8583660    -3.0646951    -0.9487412
H           3.4037164    -2.9777508    -0.0813077
H           3.2930543    -2.3890422    -1.7479568
H           1.8177880    -1.1455150     0.6587280
H           1.7228345    -0.5628626    -0.9991893
C           5.3675229     1.1755549    -0.0374874
H           6.1220119     1.8932931    -0.3287613
C           4.2556184     0.7148410    -0.8187113
H           3.9989701     1.0113286    -1.8267838
C           3.5667184    -0.1716409    -0.0420810
O           4.1932804    -0.2955653     1.1722947
C           5.2796704     0.5313472     1.1567420
H           5.8668896     0.5500768     2.0622437
15
324_C6H8O_1-0-11-9 (105,) energy =    -308.6572856
C           2.3914842    -1.0425714    -0.3416324
C           2.7597122    -2.4924703    -0.7073605
H           1.8573286    -3.0885689    -0.8840660
H           3.3277116    -2.9650266     0.1006247
H           3.3740361    -2.5219252    -1.6136651
H           1.7376608    -1.0432830     0.5406119
H           1.8168303    -0.5894935    -1.1577771
C           5.3400372     1.2198721    -0.0057472
H           6.0626246     1.9857494    -0.2516908
C           4.2045269     0.8110349    -0.7826707
H           3.8931079     1.2034845    -1.7412341
C           3.5776334    -0.1750094    -0.0776015
O           4.2608200    -0.4065673     1.0895674
C           5.3240140     0.4503299     1.1148258
H           5.9542810     0.3879832     1.9889022
15
324_C6H8O_1-0-11-9 (120,) energy =    -308.6573863
C           2.3946096    -1.0376073    -0.4255830
C           2.7341246    -2.5226956    -0.6427940
H           1.8243677    -3.1032125    -0.8315244
H           3.2288335    -2.9408003     0.2395097
H           3.4061960    -2.6500366    -1.4983509
H           1.6750980    -0.9513606     0.4011499
H           1.8982776    -0.6297531    -1.3135214
C           5.2941585     1.2697966     0.0214195
H           5.9804275     2.0831907    -0.1699105
C           4.1486696     0.8932617    -0.7576753
H           3.7893319     1.3664635    -1.6613632
C           3.5871470    -0.1856187    -0.1393967
O           4.3168712    -0.5016674     0.9785164
C           5.3471402     0.3918581     1.0577753
H           6.0137469     0.2638401     1.8970538
15
324_C6H8O_1-0-11-9 (135,) energy =    -308.6569920
C           2.4298521    -1.0360647    -0.4965003
C           2.7248477    -2.5429836    -0.5699418
H           1.8075768    -3.1040959    -0.7786083
H           3.1386914    -2.9046674     0.3761215
H           3.4496148    -2.7651130    -1.3607838
H           1.6581593    -0.8632543     0.2686087
H           2.0066758    -0.6826167    -1.4437957
C           5.2786753     1.3085377     0.0678101
H           5.9258250     2.1650330    -0.0618672
C           4.1223102     0.9642663    -0.7096872
H           3.7124812     1.5108093    -1.5482005
C           3.6293647    -0.1980448    -0.1919722
O           4.4084456    -0.5923312     0.8658914
C           5.4046185     0.3320048     1.0049525
H           6.1094554     0.1437809     1.8004839
15
324_C6H8O_1-0-11-9 (150,) energy =    -308.6561068
C           2.4541193    -1.0415941    -0.5776058
C           2.7053376    -2.5543202    -0.4948057
H           1.7882021    -3.1059910    -0.7268708
H           3.0324461    -2.8415407     0.5085786
H           3.4809414    -2.8677081    -1.2021123
H           1.6304135    -0.7843753     0.1058541
H           2.1103955    -0.7647942    -1.5813297
C           5.2436046     1.3437827     0.1084255
H           5.8492017     2.2374245     0.0457208
C           4.0716222     1.0299624    -0.6575336
H           3.6067933     1.6414841    -1.4190548
C           3.6503203    -0.2029157    -0.2502436
O           4.4863582    -0.6665662     0.7328420
C           5.4482707     0.2822421     0.9326579
H           6.1941379     0.0428823     1.6752216
15
324_C6H8O_1-0-11-9 (165,) energy =    -308.6550545
C           2.4896956    -1.0513763    -0.6633795
C           2.6899672    -2.5515996    -0.4117201
H           1.7898637    -3.1051311    -0.6986849
H           2.8917633    -2.7503853     0.6446890
H           3.5321902    -2.9449144    -0.9907645
H           1.6067675    -0.7140677    -0.0999423
H           2.2526925    -0.8745230    -1.7200763
C           5.2203232     1.3657224     0.1535822
H           5.7864957     2.2870089     0.1617807
C           4.0183531     1.0887217    -0.5782824
H           3.4873967     1.7615760    -1.2381990
C           3.6677422    -0.1995798    -0.2916654
O           4.5774958    -0.7329477     0.5836382
C           5.5133136     0.2283656     0.8386376
H           6.3088216    -0.0598344     1.5086820
15
324_C6H8O_1-0-11-9 (180,) energy =    -308.6545261
C           2.5294711    -1.0658913    -0.7562292
C           2.6600231    -2.5313683    -0.3231344
H           1.8001977    -3.1061946    -0.6823987
H           2.7011168    -2.6223384     0.7666622
H           3.5691821    -2.9867450    -0.7277288
H           1.5852608    -0.6559491    -0.3716515
H           2.4482712    -1.0161736    -1.8509429
C           5.1801933     1.3970889     0.1898928
H           5.7037462     2.3403100     0.2652508
C           3.9348939     1.1433382    -0.4743729
H           3.3223312     1.8593381    -1.0057111
C           3.6617187    -0.1847161    -0.3102859
O           4.6658766    -0.7672354     0.4170889
C           5.5774721     0.2059283     0.7117421
H           6.4322234    -0.1134364     1.2880734
