31
386_C15H15N_15-0-7-26 (-165,) energy =    -635.3397982
C           1.1205237    -1.6246342     0.0840449
C           1.5763268    -3.0572984    -0.0955185
H           2.5948416    -3.2467102    -0.4176384
H           0.8401969    -3.7442832    -0.5039105
C           1.3733351    -2.5201992     1.2943006
H           0.5335295    -2.8629039     1.8916912
H           2.2697952    -2.2990421     1.8681768
N           2.0395090    -0.5128103    -0.1620568
H           1.8071955     0.2286237     0.4958200
C          -2.9580104    -0.6034371    -0.9764693
H          -3.9791405    -0.3447476    -1.2432638
C          -2.6940500    -1.7478061    -0.2215049
H          -3.5105005    -2.3880191     0.1029380
C          -1.3852677    -2.0776437     0.1259365
H          -1.2148319    -2.9760187     0.7122187
C          -0.3033112    -1.2750182    -0.2739373
C          -0.5827681    -0.1350462    -1.0423966
H           0.2422204     0.4824047    -1.3798040
C          -1.8940915     0.1987338    -1.3861230
H          -2.0796777     1.0890389    -1.9818791
C           6.2502925    -0.8901450    -0.3637445
H           7.3316463    -0.9708274    -0.4273095
C           5.6545496    -0.1708001     0.6725232
H           6.2710961     0.3115591     1.4267285
C           4.2653307    -0.0773708     0.7603096
H           3.8081595     0.4717879     1.5812471
C           3.4424897    -0.6835110    -0.2031362
C           4.0516129    -1.3839353    -1.2604405
H           3.4282289    -1.8070721    -2.0417888
C           5.4386757    -1.4958486    -1.3267535
H           5.8896443    -2.0415226    -2.1517297
31
386_C15H15N_15-0-7-26 (-150,) energy =    -635.3412057
C           1.1112086    -1.6221524     0.2439727
C           1.5974091    -3.0517785     0.1178974
H           2.6448116    -3.2269036    -0.1036397
H           0.9152542    -3.7474473    -0.3631687
C           1.2476015    -2.5185161     1.4761367
H           0.3482185    -2.8627415     1.9786569
H           2.0754399    -2.2875206     2.1419060
N           2.0486863    -0.5129478     0.1140942
H           1.8806187     0.1553719     0.8613267
C          -2.8693939    -0.6258873    -1.1568059
H          -3.8662342    -0.3727664    -1.5075859
C          -2.6456348    -1.8196854    -0.4681783
H          -3.4688261    -2.5043976    -0.2803892
C          -1.3682892    -2.1431173    -0.0142124
H          -1.2278436    -3.0808031     0.5164956
C          -0.2789209    -1.2836638    -0.2380018
C          -0.5167168    -0.0928837    -0.9390602
H           0.3170854     0.5720298    -1.1353462
C          -1.7968645     0.2334904    -1.3904517
H          -1.9512110     1.1641833    -1.9308063
C           6.2032980    -0.8476964    -0.5962857
H           7.2702578    -0.9165988    -0.7873727
C           5.7256158    -0.1433135     0.5094971
H           6.4210791     0.3399522     1.1910829
C           4.3565910    -0.0653855     0.7618653
H           3.9957678     0.4723947     1.6367683
C           3.4301595    -0.6734706    -0.1025904
C           3.9175654    -1.3617491    -1.2296724
H           3.2133810    -1.7945283    -1.9332015
C           5.2883013    -1.4555725    -1.4597936
H           5.6428905    -1.9930136    -2.3357570
31
386_C15H15N_15-0-7-26 (-135,) energy =    -635.3428598
C           1.0914550    -1.6400845     0.3964247
C           1.5907883    -3.0713649     0.3267960
H           2.6565411    -3.2330525     0.2041578
H           0.9659278    -3.7750869    -0.2162396
C           1.1059475    -2.5346781     1.6386574
H           0.1555182    -2.8730621     2.0415061
H           1.8574763    -2.3025220     2.3890578
N           2.0492152    -0.5478916     0.3721723
H           1.9464266     0.0436179     1.1902850
C          -2.7528991    -0.6341538    -1.3384629
H          -3.7156040    -0.3780546    -1.7725172
C          -2.5711221    -1.8624830    -0.7000174
H          -3.3929738    -2.5710839    -0.6351175
C          -1.3373728    -2.1905703    -0.1407778
H          -1.2285614    -3.1557360     0.3468092
C          -0.2516457    -1.3003828    -0.2051486
C          -0.4465794    -0.0739663    -0.8551995
H           0.3864416     0.6171068    -0.9229303
C          -1.6827645     0.2563244    -1.4134925
H          -1.8047929     1.2150916    -1.9113528
C           6.0964657    -0.7858828    -0.8154985
H           7.1363001    -0.8306826    -1.1257113
C           5.7314646    -0.0999846     0.3441207
H           6.4889860     0.3930039     0.9483021
C           4.3992715    -0.0516140     0.7499103
H           4.1292497     0.4731469     1.6646780
C           3.3930840    -0.6745430    -0.0095834
C           3.7642934    -1.3478313    -1.1888704
H           2.9961249    -1.8001743    -1.8079317
C           5.1019749    -1.4081164    -1.5738712
H           5.3656207    -1.9348929    -2.4876946
31
386_C15H15N_15-0-7-26 (-120,) energy =    -635.3446443
C           1.1035666    -1.6915933     0.5604862
C           1.5940578    -3.1301001     0.5329815
H           2.6667742    -3.2894880     0.4956516
H           1.0155641    -3.8344999    -0.0581894
C           1.0032691    -2.5864000     1.7965660
H           0.0145336    -2.9106044     2.1087447
H           1.6843885    -2.3646984     2.6143766
N           2.0845256    -0.6296928     0.6279235
H           2.0505801    -0.1178533     1.5014892
C          -2.5710491    -0.6249129    -1.4781293
H          -3.4909892    -0.3525613    -1.9883630
C          -2.4410933    -1.8792909    -0.8789019
H          -3.2610107    -2.5918456    -0.9208016
C          -1.2614808    -2.2286979    -0.2236434
H          -1.1909976    -3.2137563     0.2303958
C          -0.1811234    -1.3330024    -0.1489073
C          -0.3234561    -0.0793816    -0.7588985
H           0.5057443     0.6183336    -0.7148727
C          -1.5047701     0.2712371    -1.4148482
H          -1.5872482     1.2506991    -1.8793765
C           5.9697197    -0.7168746    -1.0203907
H           6.9685697    -0.7248830    -1.4465896
C           5.7170801    -0.0573687     0.1843076
H           6.5227844     0.4522540     0.7069293
C           4.4390298    -0.0540064     0.7375099
H           4.2578083     0.4534417     1.6834959
C           3.3726965    -0.7013506     0.0870056
C           3.6282328    -1.3520442    -1.1345546
H           2.8118820    -1.8290154    -1.6670836
C           4.9151132    -1.3618802    -1.6696224
H           5.0893728    -1.8716438    -2.6140559
31
386_C15H15N_15-0-7-26 (-105,) energy =    -635.3461239
C           1.1067690    -1.7412362     0.6924603
C           1.5667630    -3.1935063     0.7004840
H           2.6376935    -3.3661926     0.7365649
H           1.0188345    -3.8933764     0.0759971
C           0.8980820    -2.6284302     1.9155839
H          -0.1197105    -2.9271125     2.1502092
H           1.5177360    -2.4225565     2.7849345
N           2.1173693    -0.7231709     0.8333677
H           2.1397014    -0.2740391     1.7392065
C          -2.3637752    -0.5925302    -1.6372572
H          -3.2323317    -0.2995575    -2.2208253
C          -2.3006894    -1.8589730    -1.0528064
H          -3.1219828    -2.5598912    -1.1790248
C          -1.1862209    -2.2351743    -0.3048598
H          -1.1665285    -3.2288312     0.1353719
C          -0.1072201    -1.3543044    -0.1192706
C          -0.1827164    -0.0872630    -0.7130604
H           0.6442334     0.6017392    -0.5797579
C          -1.2979064     0.2894681    -1.4634035
H          -1.3293399     1.2784651    -1.9136707
C           5.8035467    -0.6021440    -1.2137167
H           6.7526530    -0.5596646    -1.7397756
C           5.6483977     0.0278644     0.0234712
H           6.4812153     0.5650251     0.4706896
C           4.4351933    -0.0305239     0.7031918
H           4.3298143     0.4572673     1.6707770
C           3.3359745    -0.7169949     0.1535295
C           3.4920929    -1.3416088    -1.0977782
H           2.6496868    -1.8535252    -1.5505865
C           4.7162253    -1.2838787    -1.7625740
H           4.8140213    -1.7739481    -2.7282581
31
386_C15H15N_15-0-7-26 (-90,) energy =    -635.3467703
C           1.0848252    -1.8392842     0.8139794
C           1.4662701    -3.3157692     0.8429771
H           2.5248287    -3.5380593     0.9322180
H           0.9149556    -3.9903141     0.1942682
C           0.7685712    -2.7118105     2.0226570
H          -0.2752955    -2.9545591     2.1998420
H           1.3507523    -2.5361551     2.9234659
N           2.1531688    -0.9053155     1.0131486
H           2.1365460    -0.3659070     1.8664405
C          -2.1884221    -0.5016296    -1.6947185
H          -3.0075278    -0.1614487    -2.3224463
C          -2.2130698    -1.7803516    -1.1347084
H          -3.0537490    -2.4431348    -1.3236432
C          -1.1615915    -2.2178460    -0.3309629
H          -1.2090459    -3.2190215     0.0895829
C          -0.0598330    -1.3876456    -0.0637282
C          -0.0481224    -0.1071363    -0.6327564
H           0.7963726     0.5457621    -0.4406214
C          -1.0995814     0.3310938    -1.4395913
H          -1.0627221     1.3286649    -1.8699789
C           5.6286727    -0.4851259    -1.3335771
H           6.5267714    -0.3709255    -1.9332931
C           5.5070890     0.1654311    -0.1027234
H           6.3159339     0.7920405     0.2652278
C           4.3593183     0.0180484     0.6693208
H           4.2809726     0.5240893     1.6300337
C           3.2911724    -0.7859249     0.2240735
C           3.4118039    -1.4325487    -1.0203789
H           2.5933383    -2.0366889    -1.3956085
C           4.5721191    -1.2802975    -1.7788884
H           4.6424536    -1.7888794    -2.7374154
31
386_C15H15N_15-0-7-26 (-75,) energy =    -635.3472295
C           1.1724881    -1.9252372     0.8742779
C           1.4824466    -3.4162379     0.9239346
H           2.5249794    -3.6841921     1.0612427
H           0.9291634    -4.0691185     0.2551367
C           0.7651354    -2.7754398     2.0719936
H          -0.2955327    -2.9691588     2.2028334
H           1.3187581    -2.6184052     2.9931452
N           2.2935139    -1.0681823     1.1324646
H           2.1319716    -0.3359427     1.8118475
C          -1.9581030    -0.4234807    -1.7253341
H          -2.7432430    -0.0420329    -2.3723804
C          -2.0382740    -1.7161638    -1.2038997
H          -2.8894224    -2.3489126    -1.4423433
C          -1.0299812    -2.2058029    -0.3755848
H          -1.1214199    -3.2157636     0.0152778
C           0.0849398    -1.4167651    -0.0441982
C           0.1518178    -0.1214277    -0.5757492
H           1.0056268     0.5064420    -0.3454741
C          -0.8567698     0.3695102    -1.4068420
H          -0.7753541     1.3770243    -1.8066573
C           5.5007373    -0.3047944    -1.5013649
H           6.3353446    -0.1079654    -2.1677294
C           5.3578537     0.4107961    -0.3095181
H           6.0854589     1.1722807    -0.0395117
C           4.2903393     0.1591601     0.5462306
H           4.1961904     0.7154079     1.4772259
C           3.3283509    -0.8195930     0.2286030
C           3.4687514    -1.5313058    -0.9763543
H           2.7292544    -2.2731742    -1.2551461
C           4.5480547    -1.2724020    -1.8212164
H           4.6352266    -1.8342164    -2.7480841
31
386_C15H15N_15-0-7-26 (-60,) energy =    -635.3464546
C           1.1978918    -2.0038447     0.9701279
C           1.4033635    -3.5107112     1.0833825
H           2.4227228    -3.8328345     1.2685579
H           0.8324578    -4.1631786     0.4298644
C           0.6946393    -2.7753670     2.1806322
H          -0.3815387    -2.8886372     2.2736376
H           1.2231968    -2.6234372     3.1176233
N           2.3860609    -1.2341145     1.2417113
H           2.2410964    -0.4983659     1.9242767
C          -1.7428346    -0.3892859    -1.7816933
H          -2.4827366     0.0196397    -2.4642712
C          -1.8501164    -1.7060287    -1.3312112
H          -2.6772850    -2.3302637    -1.6595424
C          -0.8985910    -2.2324074    -0.4589926
H          -1.0129446    -3.2593511    -0.1234915
C           0.1858334    -1.4583855    -0.0118917
C           0.2754881    -0.1354537    -0.4688186
H           1.1020060     0.4882295    -0.1470616
C          -0.6745162     0.3923742    -1.3445798
H          -0.5734623     1.4196799    -1.6851678
C           5.2975561    -0.2023639    -1.6378580
H           6.0581927     0.0610691    -2.3668726
C           5.1910072     0.5022910    -0.4363614
H           5.8722411     1.3218952    -0.2213216
C           4.2151616     0.1675918     0.4980290
H           4.1465872     0.7191810     1.4341162
C           3.3158093    -0.8863174     0.2515597
C           3.4235772    -1.5923234    -0.9592233
H           2.7348681    -2.4012185    -1.1755375
C           4.4067301    -1.2475241    -1.8859859
H           4.4700940    -1.8050666    -2.8172787
31
386_C15H15N_15-0-7-26 (-45,) energy =    -635.3440666
C           1.1500915    -2.0284739     1.0930821
C           1.1092332    -3.5208379     1.3743527
H           2.0618496    -3.9935673     1.5887538
H           0.3983708    -4.1417913     0.8382613
C           0.5651563    -2.5486763     2.3883444
H          -0.5118837    -2.4837757     2.5099208
H           1.1396037    -2.3818075     3.2960537
N           2.4502795    -1.4038335     1.2750160
H           2.4173689    -0.6718645     1.9772909
C          -1.4830448    -0.2494032    -1.8483298
H          -2.1434770     0.2069079    -2.5807957
C          -1.1267294    -1.5921794    -1.9633180
H          -1.5045531    -2.1881120    -2.7901196
C          -0.2754088    -2.1770242    -1.0225040
H           0.0037483    -3.2209508    -1.1323704
C           0.2290180    -1.4341987     0.0504576
C          -0.1360255    -0.0825969     0.1516908
H           0.2496296     0.5128012     0.9761538
C          -0.9814273     0.5065037    -0.7854407
H          -1.2517790     1.5546028    -0.6860898
C           5.0137754    -0.3253168    -1.9052077
H           5.6856477    -0.0516882    -2.7134968
C           4.9707814     0.4299392    -0.7314747
H           5.6117840     1.3008105    -0.6185553
C           4.1033203     0.0850199     0.3018031
H           4.0748827     0.6849431     1.2099570
C           3.2605485    -1.0341829     0.1885326
C           3.3118164    -1.7962745    -0.9910222
H           2.6785442    -2.6704232    -1.0938618
C           4.1773216    -1.4368114    -2.0225649
H           4.1978690    -2.0384718    -2.9279747
31
386_C15H15N_15-0-7-26 (-30,) energy =    -635.3410895
C           1.1562892    -2.0927776     1.1272155
C           0.9744723    -3.5577851     1.4938280
H           1.8818472    -4.1053943     1.7260522
H           0.1976928    -4.1391075     1.0068448
C           0.5436198    -2.4788266     2.4543743
H          -0.5194558    -2.2996601     2.5843490
H           1.1431609    -2.3197455     3.3480162
N           2.5228338    -1.5911317     1.2597387
H           2.5921140    -0.9556663     2.0485230
C          -1.3447264    -0.2969536    -1.9146389
H          -1.9734423     0.1628651    -2.6724225
C          -1.0868750    -1.6664880    -1.9512735
H          -1.5105572    -2.2805664    -2.7417753
C          -0.2766313    -2.2559080    -0.9776613
H          -0.0727020    -3.3216386    -1.0260389
C           0.2838407    -1.4901576     0.0503783
C           0.0187044    -0.1117937     0.0728614
H           0.4514716     0.5003415     0.8604904
C          -0.7852758     0.4811281    -0.8975991
H          -0.9780634     1.5501648    -0.8602248
C           4.8734652    -0.1430479    -1.9397287
H           5.4919356     0.2234073    -2.7539142
C           4.8845531     0.4947388    -0.6981342
H           5.5138249     1.3665771    -0.5370710
C           4.0830870     0.0316589     0.3430475
H           4.0929113     0.5439014     1.3038930
C           3.2586113    -1.0928782     0.1696068
C           3.2611794    -1.7403527    -1.0779242
H           2.6469917    -2.6218929    -1.2258773
C           4.0547606    -1.2604430    -2.1174553
H           4.0372475    -1.7736771    -3.0757652
31
386_C15H15N_15-0-7-26 (-15,) energy =    -635.3374881
C           1.1598551    -2.1245075     1.1351092
C           0.8466001    -3.5319500     1.6166808
H           1.7031021    -4.1474221     1.8725613
H           0.0040737    -4.0700203     1.1927579
C           0.5484706    -2.3453041     2.5003593
H          -0.4879825    -2.0528690     2.6405403
H           1.1823098    -2.1822817     3.3701737
N           2.5812384    -1.7563217     1.1861839
H           2.7732970    -1.2561738     2.0482198
C          -1.2764880    -0.3734924    -1.9791501
H          -1.8909983     0.0729767    -2.7563486
C          -1.0712182    -1.7523493    -1.9520888
H          -1.5221369    -2.3867123    -2.7108512
C          -0.2805945    -2.3250877    -0.9529047
H          -0.1176324    -3.3990555    -0.9470827
C           0.3122016    -1.5323082     0.0358864
C           0.0998708    -0.1454424    -0.0050582
H           0.5587408     0.4849297     0.7524872
C          -0.6849310     0.4306009    -1.0012826
H          -0.8377812     1.5066062    -1.0143951
C           4.8111019     0.0260193    -1.9330910
H           5.4003925     0.4754141    -2.7271721
C           4.8912808     0.5120552    -0.6274273
H           5.5455665     1.3486443    -0.3948962
C           4.1253549    -0.0571582     0.3880710
H           4.1867241     0.3406151     1.3999367
C           3.2711993    -1.1419454     0.1246891
C           3.2089507    -1.6396275    -1.1890503
H           2.5762492    -2.4920334    -1.4098857
C           3.9625507    -1.0506363    -2.2014426
H           3.8934485    -1.4485520    -3.2108590
31
386_C15H15N_15-0-7-26 (0,) energy =    -635.3344537
C           1.1360942    -1.7078262     1.2941807
C           0.7274469    -2.8501163     2.2008256
H           1.5154693    -3.3964180     2.7171163
H          -0.1124953    -3.4676348     1.8957169
C           0.4593815    -1.4229498     2.6211677
H          -0.5722473    -1.0836225     2.6347774
H           1.0893790    -0.9989848     3.3974627
N           2.5847217    -1.4415091     1.2658935
H           3.0773885    -2.2181852     1.6939238
C          -1.1112453    -1.1200027    -2.3491915
H          -1.6777199    -0.9799283    -3.2660040
C          -0.1894138    -2.1649169    -2.2455453
H          -0.0354207    -2.8410390    -3.0824250
C           0.5331953    -2.3447815    -1.0679440
H           1.2503068    -3.1579976    -0.9921321
C           0.3514542    -1.4862491     0.0267967
C          -0.5715319    -0.4408585    -0.0909256
H          -0.7175598     0.2385606     0.7441920
C          -1.2998818    -0.2584639    -1.2687860
H          -2.0127987     0.5588730    -1.3403575
C           4.8967788    -0.0418152    -1.9879156
H           5.5063686     0.3252770    -2.8085761
C           5.2854097    -1.1698591    -1.2643953
H           6.2033168    -1.6939257    -1.5192009
C           4.4952262    -1.6467049    -0.2202244
H           4.8015402    -2.5382695     0.3248353
C           3.3038572    -0.9929516     0.1426213
C           2.9296751     0.1563537    -0.5773055
H           2.0308453     0.6944266    -0.2992407
C           3.7131861     0.6110220    -1.6352219
H           3.3997159     1.4980943    -2.1801189
31
386_C15H15N_15-0-7-26 (15,) energy =    -635.3374887
C           1.1435861    -1.7330578     1.2799270
C           0.6586212    -2.7456370     2.2927145
H           1.4101164    -3.3100541     2.8419639
H          -0.2371540    -3.3102496     2.0514691
C           0.5224684    -1.2719467     2.5885803
H          -0.4767772    -0.8469842     2.5879233
H           1.2060213    -0.8388723     3.3118074
N           2.6080678    -1.6254858     1.2199032
H           3.0247462    -2.5187284     1.4621362
C          -1.0812727    -1.2354555    -2.3947353
H          -1.6399753    -1.1194914    -3.3196152
C          -0.1918528    -2.3020155    -2.2397670
H          -0.0559087    -3.0200152    -3.0443275
C           0.5207769    -2.4496966    -1.0520634
H           1.2121791    -3.2807569    -0.9374079
C           0.3630850    -1.5378712     0.0032910
C          -0.5257802    -0.4708515    -0.1674489
H          -0.6524468     0.2534582     0.6321665
C          -1.2451781    -0.3204970    -1.3554244
H          -1.9305072     0.5157214    -1.4673401
C           4.8523867     0.0998076    -1.9206660
H           5.4438721     0.5469517    -2.7143647
C           5.2111413    -1.1353426    -1.3791392
H           6.0871741    -1.6616218    -1.7501590
C           4.4451263    -1.7146564    -0.3694912
H           4.7277981    -2.6853635     0.0350221
C           3.3080732    -1.0617071     0.1368519
C           2.9626471     0.1913294    -0.3996256
H           2.1042332     0.7241726    -0.0061848
C           3.7223631     0.7529428    -1.4230417
H           3.4324487     1.7199879    -1.8265830
31
386_C15H15N_15-0-7-26 (30,) energy =    -635.3410895
C           1.1519678    -1.7488937     1.2781301
C           0.6239926    -2.6305681     2.3870118
H           1.3479156    -3.2178971     2.9476676
H          -0.3288065    -3.1243454     2.2212290
C           0.6315298    -1.1340893     2.5684495
H          -0.3252853    -0.6212771     2.5694159
H           1.3810739    -0.7109648     3.2289677
N           2.6083863    -1.7956586     1.1632933
H           2.9399170    -2.7517253     1.2458240
C          -1.1287475    -1.3566213    -2.3794807
H          -1.6990560    -1.2682217    -3.3002871
C          -0.2622839    -2.4363532    -2.1892924
H          -0.1562202    -3.1931970    -2.9621742
C           0.4657349    -2.5470302    -1.0071482
H           1.1388840    -3.3893710    -0.8668327
C           0.3481223    -1.5854785     0.0088838
C          -0.5173917    -0.5059293    -0.1979986
H          -0.6131969     0.2598040     0.5663346
C          -1.2527854    -0.3922824    -1.3804026
H          -1.9180625     0.4558701    -1.5201515
C           4.8550121     0.2362386    -1.7834339
H           5.4455554     0.7600841    -2.5294491
C           5.1865983    -1.0648941    -1.4018801
H           6.0408637    -1.5652368    -1.8512244
C           4.4227984    -1.7411414    -0.4531239
H           4.6855620    -2.7595615    -0.1711751
C           3.3128576    -1.1239573     0.1481721
C           2.9910039     0.1912862    -0.2287825
H           2.1501506     0.6923701     0.2382371
C           3.7520017     0.8535385    -1.1895321
H           3.4818453     1.8686844    -1.4698328
31
386_C15H15N_15-0-7-26 (45,) energy =    -635.3440672
C           1.1588911    -1.7655696     1.2076761
C           0.6173997    -2.5316419     2.3953259
H           1.3208333    -3.1413423     2.9567993
H          -0.3803435    -2.9503994     2.3049945
C           0.7560140    -1.0338892     2.4767439
H          -0.1536661    -0.4416873     2.4811927
H           1.5673352    -0.6343581     3.0759456
N           2.5904821    -1.9448463     1.0293699
H           2.8396949    -2.9269969     0.9721224
C          -1.2409818    -1.4709009    -2.3846892
H          -1.8394835    -1.4075628    -3.2894974
C          -0.4256930    -2.5826957    -2.1567249
H          -0.3884709    -3.3900745    -2.8835141
C           0.3392421    -2.6607117    -0.9954104
H           0.9707880    -3.5298572    -0.8261085
C           0.3104930    -1.6345677    -0.0380336
C          -0.5051855    -0.5244236    -0.2825436
H          -0.5338030     0.2906554     0.4348193
C          -1.2773648    -0.4427864    -1.4440247
H          -1.9018198     0.4305188    -1.6139971
C           4.9458392     0.3622197    -1.6121172
H           5.5638246     0.9543280    -2.2807873
C           5.2492414    -0.9784191    -1.3660513
H           6.1092043    -1.4407258    -1.8443764
C           4.4523209    -1.7406459    -0.5157716
H           4.6961449    -2.7864839    -0.3362444
C           3.3327383    -1.1748934     0.1184689
C           3.0346342     0.1765226    -0.1256072
H           2.1822360     0.6358408     0.3624510
C           3.8338859     0.9276696    -0.9854820
H           3.5827018     1.9705184    -1.1630929
31
386_C15H15N_15-0-7-26 (60,) energy =    -635.3464538
C           0.9935795    -1.8821719     1.0286913
C           0.4357401    -2.4512977     2.3243655
H           1.0951009    -3.0869783     2.9087949
H          -0.6063775    -2.7571176     2.3136164
C           0.7575646    -0.9895173     2.2423402
H          -0.0552098    -0.2705378     2.2081262
H           1.6512203    -0.6403560     2.7489111
N           2.3799727    -2.2140498     0.8139836
H           2.5433400    -3.2086957     0.7033608
C          -1.6511295    -1.6692568    -2.4049013
H          -2.3138498    -1.6250693    -3.2648239
C          -0.3552619    -2.1664968    -2.5348821
H           0.0016352    -2.5137059    -3.5010887
C           0.4961548    -2.2218295    -1.4303250
H           1.5021196    -2.6061601    -1.5568340
C           0.0761340    -1.7764297    -0.1685892
C          -1.2339658    -1.2810178    -0.0524929
H          -1.6052980    -0.9338421     0.9075865
C          -2.0863681    -1.2280934    -1.1542723
H          -3.0940540    -0.8389097    -1.0325612
C           5.0936925     0.1170409    -1.4300087
H           5.8036353     0.7126091    -1.9963198
C           5.3466588    -1.2318464    -1.1692793
H           6.2602602    -1.6964296    -1.5319998
C           4.4366603    -1.9972375    -0.4457441
H           4.6481911    -3.0456280    -0.2424370
C           3.2433944    -1.4286872     0.0370875
C           2.9901095    -0.0717359    -0.2285792
H           2.0724113     0.3850268     0.1244168
C           3.9109076     0.6839613    -0.9534369
H           3.6932571     1.7309599    -1.1499062
31
386_C15H15N_15-0-7-26 (75,) energy =    -635.3472296
C           0.9809590    -1.8667572     0.9038176
C           0.4893544    -2.3499450     2.2631943
H           1.1721553    -2.9694493     2.8373566
H          -0.5571348    -2.6305507     2.3392672
C           0.8404174    -0.9057418     2.0779170
H           0.0419694    -0.1706787     2.0353137
H           1.7659160    -0.5467755     2.5162154
N           2.3278018    -2.2611564     0.6062338
H           2.4728841    -3.2560374     0.4921089
C          -1.8577776    -1.7508952    -2.3736369
H          -2.5676833    -1.7283713    -3.1959067
C          -0.5410810    -2.1558901    -2.5870193
H          -0.2147369    -2.4508582    -3.5810282
C           0.3707037    -2.1842130    -1.5302310
H           1.3932646    -2.4938704    -1.7165772
C          -0.0109882    -1.8071293    -0.2352238
C          -1.3410209    -1.3989521    -0.0352953
H          -1.6788223    -1.0987279     0.9530749
C          -2.2525855    -1.3717759    -1.0892327
H          -3.2750482    -1.0523290    -0.9042086
C           5.2725704     0.1353432    -1.2354750
H           6.0407025     0.7459250    -1.7007886
C           5.4932809    -1.2232768    -0.9936968
H           6.4404790    -1.6800238    -1.2700498
C           4.5112715    -2.0068551    -0.3963492
H           4.6996350    -3.0614347    -0.2029673
C           3.2720120    -1.4492080    -0.0255385
C           3.0485497    -0.0840183    -0.2791455
H           2.0947897     0.3637403    -0.0246181
C           4.0451970     0.6905510    -0.8728926
H           3.8492887     1.7435322    -1.0604177
31
386_C15H15N_15-0-7-26 (90,) energy =    -635.3467703
C           0.9803083    -1.8648762     0.7853195
C           0.5857066    -2.3143811     2.1869464
H           1.3030361    -2.9247666     2.7292612
H          -0.4529405    -2.5901679     2.3454701
C           0.9283714    -0.8764829     1.9457563
H           0.1310196    -0.1389142     1.9425925
H           1.8830361    -0.5093668     2.3087551
N           2.2857703    -2.2831694     0.3679498
H           2.5310092    -3.2489589     0.5306380
C          -2.0704180    -1.7459446    -2.2930451
H          -2.8321770    -1.7196287    -3.0674783
C          -0.7669389    -2.1375996    -2.5957505
H          -0.5039373    -2.4183724    -3.6124658
C           0.2109448    -2.1714029    -1.6001597
H           1.2230495    -2.4752825    -1.8444660
C          -0.0911265    -1.8131725    -0.2795441
C          -1.4076449    -1.4176633     0.0119007
H          -1.6833260    -1.1302415     1.0232620
C          -2.3851332    -1.3857857    -0.9813421
H          -3.3960942    -1.0771760    -0.7275042
C           5.4110078     0.1723212    -1.0338341
H           6.2212654     0.7982456    -1.3957362
C           5.6358349    -1.1702347    -0.7175429
H           6.6287914    -1.5986122    -0.8306601
C           4.6008576    -1.9736932    -0.2502191
H           4.7913143    -3.0159128     0.0001669
C           3.3012955    -1.4526696    -0.0913213
C           3.0749995    -0.1027405    -0.4196826
H           2.0782403     0.3143936    -0.3293983
C           4.1249600     0.6912970    -0.8800313
H           3.9262419     1.7311658    -1.1281612
31
386_C15H15N_15-0-7-26 (105,) energy =    -635.3461240
C           0.9791008    -1.8450337     0.6419467
C           0.6778195    -2.2662139     2.0767728
H           1.4335907    -2.8602557     2.5847669
H          -0.3454323    -2.5442050     2.3130670
C           0.9990577    -0.8336780     1.7810218
H           0.1997605    -0.0985784     1.8089184
H           1.9708550    -0.4527905     2.0785870
N           2.2491333    -2.2865014     0.1223546
H           2.5123645    -3.2243975     0.3941004
C          -2.2755842    -1.8020956    -2.2209280
H          -3.0887764    -1.7942855    -2.9416496
C          -0.9880150    -2.1689418    -2.6105409
H          -0.7893412    -2.4488774    -3.6420459
C           0.0558499    -2.1793605    -1.6838136
H           1.0559712    -2.4657039    -1.9905919
C          -0.1633357    -1.8232902    -0.3463236
C          -1.4644714    -1.4521130     0.0330151
H          -1.6767600    -1.1651222     1.0597251
C          -2.5074046    -1.4429665    -0.8917488
H          -3.5046559    -1.1529590    -0.5706384