18
306_C8H7F3_0-4-13-11 (-165,) energy =    -608.6014819
C           1.7973920    -1.7895708    -0.6342659
F           2.6673600    -2.5074986    -1.3847617
F           0.5551451    -2.0933952    -1.0753724
F           1.8966726    -2.2402908     0.6341875
C           2.0369533    -0.2981020    -0.7377193
H           1.9416286    -0.0493253    -1.8023600
H           1.1937716     0.1832525    -0.2305152
C           5.7346615     1.3851781     0.7699617
H           6.6557261     1.8258488     1.1415223
C           4.6297910     2.1925392     0.4928715
H           4.6842672     3.2668603     0.6474626
C           3.4494167     1.6208907     0.0217291
H           2.5909267     2.2562777    -0.1865121
C           3.3475197     0.2376931    -0.1843735
C           4.4636824    -0.5624321     0.0877679
H           4.4209801    -1.6336537    -0.0699495
C           5.6450181     0.0089848     0.5662262
H           6.4983135    -0.6299707     0.7775522
18
306_C8H7F3_0-4-13-11 (-150,) energy =    -608.6021646
C           1.7674559    -1.7779506    -0.5498748
F           2.6351751    -2.6361226    -1.1419928
F           0.5365202    -2.0850456    -1.0196994
F           1.7759626    -2.0476192     0.7709374
C           2.0944819    -0.3280742    -0.8472295
H           2.1183442    -0.2412405    -1.9413326
H           1.2347023     0.2576608    -0.5067914
C           5.7172109     1.3862417     0.7975308
H           6.6227093     1.8319652     1.2000817
C           4.5802053     2.1681856     0.5901773
H           4.5931956     3.2278854     0.8307423
C           3.4188758     1.5890628     0.0795040
H           2.5349227     2.2047372    -0.0726873
C           3.3709193     0.2248843    -0.2369123
C           4.5212029    -0.5493597    -0.0354591
H           4.5156355    -1.6054839    -0.2794441
C           5.6810710     0.0273408     0.4843092
H           6.5604396    -0.5916449     0.6412826
18
306_C8H7F3_0-4-13-11 (-135,) energy =    -608.6029287
C           1.7067822    -1.7236913    -0.4405397
F           2.5744564    -2.6966586    -0.8135130
F           0.5061435    -2.0480203    -0.9740250
F           1.5845401    -1.7872654     0.8999857
C           2.1377137    -0.3488467    -0.9156706
H           2.2535846    -0.4259530    -2.0042440
H           1.2905398     0.3197322    -0.7351018
C           5.7099557     1.3779996     0.8189054
H           6.6052960     1.8238142     1.2435522
C           4.5419082     2.1299031     0.6931909
H           4.5201258     3.1662012     1.0195988
C           3.3940662     1.5508710     0.1507133
H           2.4860591     2.1428497     0.0599119
C           3.3917004     0.2168049    -0.2747012
C           4.5741950    -0.5271081    -0.1547023
H           4.5994455    -1.5601064    -0.4838689
C           5.7202573     0.0484007     0.3938643
H           6.6256532    -0.5456817     0.4854972
18
306_C8H7F3_0-4-13-11 (-120,) energy =    -608.6036804
C           1.6617854    -1.6488518    -0.3770447
F           2.5364906    -2.6764657    -0.4899342
F           0.5178580    -2.0370314    -0.9872188
F           1.3885259    -1.4950939     0.9339936
C           2.1886704    -0.3712435    -1.0053687
H           2.3810434    -0.6044471    -2.0595061
H           1.3658215     0.3494431    -0.9813741
C           5.7064162     1.3532702     0.8310694
H           6.5904371     1.7940559     1.2837920
C           4.5098865     2.0685579     0.7857733
H           4.4552651     3.0702779     1.2034459
C           3.3769276     1.4985353     0.2029423
H           2.4468959     2.0614529     0.1711133
C           3.4207868     0.2095755    -0.3404638
C           4.6304695    -0.4982612    -0.2976801
H           4.6854817    -1.4969056    -0.7191734
C           5.7623563     0.0683023     0.2871833
H           6.6912977    -0.4949953     0.3146636
18
306_C8H7F3_0-4-13-11 (-105,) energy =    -608.6040962
C           1.6274627    -1.5747288    -0.3050377
F           2.4918387    -2.6057966    -0.1676019
F           0.5380325    -2.0516820    -0.9505995
F           1.2355047    -1.2079609     0.9322737
C           2.2397337    -0.4169811    -1.0738706
H           2.4900469    -0.8015496    -2.0687187
H           1.4478163     0.3272994    -1.2023803
C           5.6950702     1.3361838     0.8440968
H           6.5647630     1.7782444     1.3226456
C           4.4675842     1.9988243     0.8678208
H           4.3757405     2.9599549     1.3664485
C           3.3534183     1.4293580     0.2493709
H           2.3990512     1.9502305     0.2709935
C           3.4504651     0.1943079    -0.4011594
C           4.6874743    -0.4638295    -0.4198534
H           4.7758809    -1.4251850    -0.9181958
C           5.8015412     0.1024961     0.1984314
H           6.7543914    -0.4193813     0.1738158
18
306_C8H7F3_0-4-13-11 (-90,) energy =    -608.6041915
C           1.5725362    -1.4797986    -0.2496553
F           2.3807919    -2.4965984     0.1195141
F           0.5233641    -2.0200925    -0.9116839
F           1.0889995    -0.9155306     0.8777234
C           2.2963043    -0.4693491    -1.1226753
H           2.5965151    -0.9978402    -2.0332674
H           1.5555931     0.2837968    -1.4102639
C           5.6927991     1.3303573     0.8510888
H           6.5471705     1.7826052     1.3473927
C           4.4327698     1.9238173     0.9438245
H           4.3014913     2.8392529     1.5144540
C           3.3377301     1.3439726     0.3028089
H           2.3577126     1.8084081     0.3795321
C           3.4877938     0.1680638    -0.4419473
C           4.7542473    -0.4230446    -0.5245279
H           4.8812026    -1.3403270    -1.0941298
C           5.8509198     0.1544153     0.1156166
H           6.8285359    -0.3138083     0.0388344
18
306_C8H7F3_0-4-13-11 (-75,) energy =    -608.6041014
C           1.4924268    -1.3892583    -0.2091451
F           2.2008853    -2.3695013     0.3874707
F           0.4866988    -1.9776497    -0.8978422
F           0.9244262    -0.6466893     0.7679193
C           2.3526725    -0.5478324    -1.1356944
H           2.6961124    -1.2118846    -1.9349297
H           1.6849341     0.1912912    -1.5921526
C           5.6995174     1.3414465     0.8419134
H           6.5413580     1.8172389     1.3375739
C           4.4080758     1.8432355     1.0159691
H           4.2405781     2.7099295     1.6497616
C           3.3279185     1.2355040     0.3768845
H           2.3249434     1.6283348     0.5186361
C           3.5238836     0.1194167    -0.4472159
C           4.8211752    -0.3790959    -0.6115346
H           4.9857329    -1.2471386    -1.2455614
C           5.9039061     0.2280826     0.0261325
H           6.9054323    -0.1692287    -0.1151088
18
306_C8H7F3_0-4-13-11 (-60,) energy =    -608.6036187
C           1.3994785    -1.2980632    -0.1923036
F           1.9852031    -2.1817399     0.6398328
F           0.4698033    -1.9706069    -0.9102191
F           0.7318492    -0.4024801     0.5736345
C           2.4004415    -0.6323129    -1.1194652
H           2.7775123    -1.4159193    -1.7834854
H           1.8243629     0.0639078    -1.7411233
C           5.7162168     1.3627610     0.8176530
H           6.5521466     1.8637225     1.2982793
C           4.4067948     1.7667294     1.0860273
H           4.2195659     2.5834015     1.7781098
C           3.3321032     1.1273388     0.4690374
H           2.3187403     1.4494610     0.6856967
C           3.5508530     0.0716926    -0.4275243
C           4.8670465    -0.3287561    -0.6853477
H           5.0515778    -1.1492774    -1.3749432
C           5.9440417     0.3126095    -0.0715678
H           6.9586464    -0.0115005    -0.2870149
18
306_C8H7F3_0-4-13-11 (-45,) energy =    -608.6028123
C           1.3189097    -1.2102366    -0.2113325
F           1.7654194    -1.9494448     0.8231775
F           0.4654926    -1.9816542    -0.9239584
F           0.5853290    -0.1935568     0.3053734
C           2.4458981    -0.7184424    -1.0997588
H           2.8405982    -1.6000978    -1.6135814
H           1.9744202    -0.0910345    -1.8672886
C           5.7245070     1.3781579     0.8011819
H           6.5535380     1.9022564     1.2688317
C           4.4099356     1.6820620     1.1586049
H           4.2111163     2.4441451     1.9074503
C           3.3418314     1.0132647     0.5604881
H           2.3265787     1.2616281     0.8492397
C           3.5732898     0.0233796    -0.4049556
C           4.8965043    -0.2789387    -0.7500576
H           5.0931720    -1.0504403    -1.4912014
C           5.9654587     0.3946062    -0.1581379
H           6.9840936     0.1445562    -0.4424514
18
306_C8H7F3_0-4-13-11 (-30,) energy =    -608.6020685
C           1.2621137    -1.1273290    -0.2534000
F           1.5596648    -1.7328936     0.9136180
F           0.4424937    -1.9539282    -0.9427898
F           0.5389049    -0.0181248     0.0410963
C           2.4961465    -0.8108494    -1.0742109
H           2.8877604    -1.7714083    -1.4240727
H           2.1382392    -0.2773236    -1.9644368
C           5.7214965     1.4055720     0.7856404
H           6.5395133     1.9585252     1.2391847
C           4.4114055     1.6066348     1.2201264
H           4.2033772     2.3174344     2.0154648
C           3.3562846     0.9005189     0.6401129
H           2.3453103     1.0753986     0.9895397
C           3.5978781    -0.0258863    -0.3827179
C           4.9189312    -0.2263090    -0.8051958
H           5.1245039    -0.9491440    -1.5918977
C           5.9727557     0.4854164    -0.2330705
H           6.9889684     0.3142403    -0.5780709
18
306_C8H7F3_0-4-13-11 (-15,) energy =    -608.6014410
C           1.2251783    -1.0689842    -0.2994455
F           1.3783434    -1.5700720     0.9445652
F           0.4150315    -1.9134994    -0.9780013
F           0.5591212     0.1047030    -0.1804088
C           2.5436874    -0.9147257    -1.0273713
H           2.9196519    -1.9290675    -1.1999874
H           2.2964772    -0.5038575    -2.0145453
C           5.7116278     1.4329191     0.7719610
H           6.5184852     2.0143449     1.2096073
C           4.4151744     1.5398066     1.2730195
H           4.2056910     2.2065806     2.1052187
C           3.3740954     0.7947196     0.7143331
H           2.3743338     0.8999507     1.1187875
C           3.6178524    -0.0743134    -0.3558339
C           4.9266115    -0.1780895    -0.8484391
H           5.1338902    -0.8546987    -1.6750776
C           5.9646475     0.5693753    -0.2956280
H           6.9708119     0.4721944    -0.6946692
18
306_C8H7F3_0-4-13-11 (0,) energy =    -608.6011936
C           1.5878897    -1.5478346    -1.2175554
F           1.4273400    -2.0461735     0.0292195
F           1.0326290    -2.4338893    -2.0756671
F           0.8595503    -0.4109730    -1.2914899
C           3.0431461    -1.3256117    -1.5676799
H           3.5139553    -2.3157497    -1.5499548
H           3.0579238    -0.9948376    -2.6129653
C           5.4362188     1.4094704     0.7943950
H           6.0529460     2.0911814     1.3736362
C           4.0976589     1.2136623     1.1294160
H           3.6642962     1.7435403     1.9734712
C           3.2996369     0.3383623     0.3881378
H           2.2622779     0.2041394     0.6706830
C           3.8337017    -0.3557373    -0.7034853
C           5.1819346    -0.1513254    -1.0318859
H           5.6119350    -0.6840047    -1.8778292
C           5.9780882     0.7210253    -0.2931416
H           7.0201771     0.8628948    -0.5669372
18
306_C8H7F3_0-4-13-11 (15,) energy =    -608.6014410
C           1.1762649    -0.9293442    -0.4145502
F           1.0230434    -1.2397056     0.8952363
F           0.3593284    -1.7520750    -1.1114805
F           0.7196273     0.3296450    -0.5835208
C           2.6059422    -1.0944235    -0.8846183
H           2.8651419    -2.1443672    -0.6977950
H           2.5876725    -0.9693738    -1.9727480
C           5.6962222     1.4747229     0.7386817
H           6.4834154     2.1124067     1.1314864
C           4.4596921     1.4077216     1.3788182
H           4.2775344     1.9942654     2.2753727
C           3.4441529     0.5896667     0.8782356
H           2.4938557     0.5515196     1.3975084
C           3.6516402    -0.1731791    -0.2771779
C           4.8973568    -0.0940058    -0.9161183
H           5.0722073    -0.6749008    -1.8194961
C           5.9130356     0.7171941    -0.4139571
H           6.8703166     0.7618393    -0.9264630
18
306_C8H7F3_0-4-13-11 (30,) energy =    -608.6020681
C           1.1590126    -0.8458212    -0.4464854
F           0.8820772    -0.9970009     0.8726240
F           0.3366059    -1.6866252    -1.1145973
F           0.8152222     0.4129004    -0.7865185
C           2.6052858    -1.1590714    -0.7736698
H           2.7834001    -2.1794932    -0.4101837
H           2.6718344    -1.2007150    -1.8654453
C           5.6950145     1.4978447     0.7013007
H           6.4811246     2.1560924     1.0610968
C           4.5083662     1.3587534     1.4211246
H           4.3652818     1.9102601     2.3465162
C           3.4963154     0.5129880     0.9640063
H           2.5833517     0.4170415     1.5402029
C           3.6548452    -0.2049192    -0.2285711
C           4.8469368    -0.0502069    -0.9489205
H           4.9811568    -0.5917639    -1.8829277
C           5.8620069     0.7875241    -0.4881961
H           6.7786312     0.8901108    -1.0628551
18
306_C8H7F3_0-4-13-11 (45,) energy =    -608.6028123
C           1.1744601    -0.7793755    -0.5495025
F           0.7740335    -0.7390688     0.7455634
F           0.3558904    -1.6512338    -1.1821257
F           0.9514422     0.4407067    -1.0766117
C           2.6196944    -1.2168467    -0.6955712
H           2.6971987    -2.1834859    -0.1812969
H           2.7771215    -1.4128805    -1.7603833
C           5.6827738     1.5122050     0.6941963
H           6.4592135     2.1910808     1.0361819
C           4.5518829     1.2843433     1.4798904
H           4.4438412     1.7866239     2.4375537
C           3.5530979     0.4126199     1.0457314
H           2.6807886     0.2469001     1.6682508
C           3.6682778    -0.2437006    -0.1877377
C           4.8031331    -0.0012967    -0.9715541
H           4.9028834    -0.4958429    -1.9352243
C           5.8064558     0.8644267    -0.5349510
H           6.6793172     1.0362945    -1.1590736
18
306_C8H7F3_0-4-13-11 (60,) energy =    -608.6036188
C           1.2038967    -0.7359030    -0.6499758
F           0.7360339    -0.4179550     0.5806466
F           0.3638780    -1.6660248    -1.1609282
F           1.1004100     0.3673919    -1.4171184
C           2.6228366    -1.2740596    -0.6079258
H           2.5950276    -2.1583404     0.0403729
H           2.8515559    -1.6258701    -1.6183792
C           5.6572550     1.5264269     0.6869538
H           6.4239443     2.2255117     1.0097584
C           4.5991165     1.2023635     1.5385568
H           4.5385988     1.6496914     2.5271050
C           3.6149651     0.3037073     1.1284147
H           2.7966662     0.0599794     1.7981854
C           3.6737700    -0.2856532    -0.1425721
C           4.7356529     0.0504305    -0.9902194
H           4.7912309    -0.3949253    -1.9808902
C           5.7236837     0.9468232    -0.5799291
H           6.5415155     1.1926732    -1.2519451
18
306_C8H7F3_0-4-13-11 (75,) energy =    -608.6041014
C           1.2539895    -0.7021615    -0.7672468
F           0.7452269    -0.1347566     0.3498276
F           0.3721630    -1.6460176    -1.1715847
F           1.2936479     0.2491209    -1.7223990
C           2.6197744    -1.3188101    -0.5205160
H           2.4765606    -2.0947794     0.2396828
H           2.9091589    -1.8227605    -1.4478604
C           5.6265181     1.5450963     0.6791626
H           6.3835703     2.2637794     0.9810213
C           4.6520540     1.1291364     1.5887380
H           4.6463543     1.5247846     2.6008333
C           3.6827244     0.2038133     1.2031696
H           2.9250715    -0.1136685     1.9141762
C           3.6755156    -0.3206747    -0.0960858
C           4.6532237     0.1060269    -1.0018865
H           4.6558684    -0.2908272    -2.0143421
C           5.6250325     1.0311486    -0.6180235
H           6.3795105     1.3491141    -1.3325318
18
306_C8H7F3_0-4-13-11 (90,) energy =    -608.6041915
C           1.3006014    -0.6954993    -0.8857512
F           0.7473018     0.0651788     0.0829692
F           0.3917291    -1.6384905    -1.2258715
F           1.4841320     0.0932232    -1.9663411
C           2.5977216    -1.3395505    -0.4278365
H           2.3435242    -1.9924302     0.4134257
H           2.9380534    -1.9798397    -1.2480869
C           5.6135064     1.5522938     0.6736466
H           6.3720053     2.2796102     0.9502119
C           4.7277642     1.0625451     1.6349347
H           4.7924310     1.4085357     2.6630315
C           3.7570912     0.1259127     1.2789133
H           3.0678574    -0.2511946     2.0304242
C           3.6617153    -0.3365106    -0.0390451
C           4.5507153     0.1646788    -0.9974929
H           4.4813081    -0.1818034    -2.0256493
C           5.5221327     1.1014757    -0.6443715
H           6.2078294     1.4780856    -1.3985900
18
306_C8H7F3_0-4-13-11 (105,) energy =    -608.6040962
C           1.3283730    -0.7116802    -1.0043404
F           0.7421746     0.2113462    -0.2147325
F           0.4042828    -1.6639392    -1.2695843
F           1.6280251    -0.1099506    -2.1779129
C           2.5539014    -1.3243175    -0.3492697
H           2.2016633    -1.8513517     0.5427911
H           2.9340980    -2.0800505    -1.0453908
C           5.6199471     1.5460417     0.6763623
H           6.3932930     2.2645809     0.9341046
C           4.8112357     0.9970813     1.6718554
H           4.9506206     1.2869683     2.7098214
C           3.8209673     0.0720885     1.3373420
H           3.1934048    -0.3526055     2.1173377
C           3.6268567    -0.3175580     0.0075111
C           4.4439634     0.2391157    -0.9855376
H           4.3014734    -0.0518137    -2.0225629
C           5.4329588     1.1643371    -0.6538786
H           6.0597545     1.5858264    -1.4351332
18
306_C8H7F3_0-4-13-11 (120,) energy =    -608.6036804
C           1.3517855    -0.7538417    -1.1019669
F           0.7614042     0.3111822    -0.5237734
F           0.4041781    -1.7070924    -1.2598266
F           1.7409059    -0.3762160    -2.3428647
C           2.5060309    -1.2881536    -0.2731668
H           2.0696266    -1.6855030     0.6480876
H           2.9141911    -2.1406739    -0.8292346
C           5.6405556     1.5363743     0.6848323
H           6.4339478     2.2372126     0.9299788
C           4.9010419     0.9298149     1.7000055
H           5.1140786     1.1552879     2.7414729
C           3.8830571     0.0299127     1.3804806
H           3.3099019    -0.4393988     2.1767767
C           3.5879812    -0.2760330     0.0470804
C           4.3425750     0.3324237    -0.9661143
H           4.1322723     0.1032074    -2.0059246
C           5.3576381     1.2342141    -0.6488626
H           5.9310776     1.6991922    -1.4463303
18
306_C8H7F3_0-4-13-11 (135,) energy =    -608.6029287
C           1.3814543    -0.7839777    -1.2013676
F           0.8271456     0.3961123    -0.8606014
F           0.3855960    -1.6982190    -1.2626678
F           1.8681339    -0.6530193    -2.4601873
C           2.4424209    -1.2295465    -0.2126980
H           1.9150850    -1.4870873     0.7108258
H           2.8564954    -2.1642011    -0.6118557
C           5.6571295     1.5234247     0.7029933
H           6.4711437     2.2025059     0.9416137
C           4.9819785     0.8500103     1.7209233
H           5.2657763     1.0007565     2.7590295
C           3.9348566    -0.0178327     1.4086957
H           3.4107511    -0.5360155     2.2086710
C           3.5448888    -0.2285915     0.0804558
C           4.2374584     0.4442386    -0.9362778
H           3.9588288     0.2919140    -1.9732141
C           5.2797368     1.3173895    -0.6250589
H           5.8004998     1.8355830    -1.4259041
18
306_C8H7F3_0-4-13-11 (150,) energy =    -608.6021646
C           1.4472015    -0.8524019    -1.2992252
F           0.9313888     0.3885182    -1.1924887
F           0.4117951    -1.7229294    -1.3182183
F           2.0481573    -0.9360489    -2.5124259
C           2.3915589    -1.1870301    -0.1618070
H           1.7703458    -1.2930642     0.7332101
H           2.7920757    -2.1846616    -0.3842670
C           5.6733856     1.5057331     0.7024807
H           6.5031284     2.1687172     0.9318792
C           5.0626233     0.7662498     1.7160621
H           5.4127775     0.8494593     2.7414749
C           3.9937549    -0.0779456     1.4165394
H           3.5191135    -0.6456799     2.2140252
C           3.5181445    -0.2034504     0.1045011
C           4.1452583     0.5348574    -0.9078323
H           3.8040133     0.4509897    -1.9332473
C           5.2090389     1.3870729    -0.6076052
H           5.6769057     1.9577920    -1.4053850
18
306_C8H7F3_0-4-13-11 (165,) energy =    -608.6014820
C           1.4725556    -0.9763328    -1.2775674
F           0.9706595     0.2717329    -1.3880807
F           0.4257940    -1.8329466    -1.2565142
F           2.1666276    -1.2320749    -2.4128184
C           2.3152281    -1.1523574    -0.0320044
H           1.6262049    -1.0819249     0.8166201
H           2.6749929    -2.1889625    -0.0542266
C           5.6842212     1.4829883     0.6646123
H           6.5334055     2.1332194     0.8561991
C           5.1526375     0.6983244     1.6898115
H           5.5848627     0.7332382     2.6863073
C           4.0599686    -0.1293669     1.4388081
H           3.6483089    -0.7331865     2.2450502
C           3.4782021    -0.1933255     0.1645862
C           4.0241571     0.5900573    -0.8593028
H           3.6046224     0.5568246    -1.8578633
C           5.1151317     1.4248783    -0.6067171
H           5.5203699     2.0301466    -1.4132163
18
306_C8H7F3_0-4-13-11 (180,) energy =    -608.6011906
C           1.5400826    -1.0371851    -1.3303927
F           1.0442107     0.1837888    -1.6333742
F           0.4986387    -1.9003900    -1.3227390
F           2.3538491    -1.4025456    -2.3466807
C           2.2439174    -1.0588267     0.0088428
H           1.4819013    -0.8118038     0.7575466
H           2.5253508    -2.1035069     0.1871574
C           5.7063130     1.4647979     0.6635863
H           6.5757026     2.0899645     0.8477687
C           5.2196067     0.6227478     1.6657740
H           5.7075801     0.5872322     2.6361609
C           4.1044722    -0.1762695     1.4235187
H           3.7307795    -0.8293106     2.2097844
C           3.4539344    -0.1542359     0.1811018
C           3.9482902     0.6937559    -0.8165332
H           3.4689351     0.7381081    -1.7872637
C           5.0661708     1.4961554    -0.5739992
H           5.4343075     2.1482324    -1.3615797
