18
306_C8H7F3_1-0-4-13 (-165,) energy =    -608.6033191
C           1.3238954    -0.8311913    -0.6067932
F           0.2643531    -1.6499926    -0.4122803
F           1.5111296    -0.7137975    -1.9404284
F           0.9707861     0.3847887    -0.1398969
C           2.5600404    -1.3730373     0.0942865
H           2.2323562    -1.7111681     1.0822853
H           2.8814058    -2.2588741    -0.4636632
C           5.7321637     1.5375313     0.4727306
H           6.5310666     2.2679567     0.5675449
C           4.9258997     1.2332293     1.5702301
H           5.0926692     1.7270278     2.5237524
C           3.9026467     0.2922514     1.4471756
H           3.2768307     0.0599208     2.3056452
C           3.6745486    -0.3581376     0.2297708
C           4.4872127    -0.0445388    -0.8675369
H           4.3145028    -0.5380887    -1.8204870
C           5.5092751     0.8965323    -0.7476554
H           6.1329571     1.1276316    -1.6070113
18
306_C8H7F3_1-0-4-13 (-150,) energy =    -608.6009699
C           1.2766666    -0.7849548    -0.6966661
F           0.1305821    -1.3649419    -0.2723034
F           1.3885424    -1.0162836    -2.0252267
F           1.1177027     0.5450392    -0.5363558
C           2.4795906    -1.3238431     0.0755693
H           2.1101437    -1.6133746     1.0638389
H           2.8031007    -2.2393983    -0.4308841
C           5.7097114     1.5170508     0.4949647
H           6.5222566     2.2308351     0.5997998
C           4.9442879     1.1580596     1.6045056
H           5.1569685     1.5911237     2.5782191
C           3.9006988     0.2407429     1.4677924
H           3.3066298    -0.0337140     2.3364404
C           3.6119717    -0.3303112     0.2245971
C           4.3876225     0.0343385    -0.8841621
H           4.1680971    -0.3997360    -1.8566067
C           5.4277299     0.9528666    -0.7514075
H           6.0195064     1.2271061    -1.6205907
18
306_C8H7F3_1-0-4-13 (-135,) energy =    -608.5984699
C           1.1790161    -0.6269179    -0.7054500
F           0.0447918    -0.9899326    -0.0634808
F           1.0629549    -1.0248695    -1.9930283
F           1.2034733     0.7215368    -0.7107831
C           2.4149150    -1.2425436    -0.0323648
H           2.0851136    -1.6222850     0.9388509
H           2.7109132    -2.1069025    -0.6348641
C           5.7126788     1.4975136     0.5091693
H           6.5434928     2.1843721     0.6457444
C           4.8937822     1.1654252     1.5888152
H           5.0831622     1.5926186     2.5698940
C           3.8286199     0.2804510     1.4131095
H           3.1940404     0.0246681     2.2585652
C           3.5695662    -0.2831359     0.1597062
C           4.3986138     0.0547838    -0.9178064
H           4.2067698    -0.3783526    -1.8969374
C           5.4620907     0.9398535    -0.7466226
H           6.0968491     1.1913539    -1.5920548
18
306_C8H7F3_1-0-4-13 (-120,) energy =    -608.5975099
C           1.3173926    -0.7145216    -0.6880634
F           0.2968872    -0.9956269     0.1553008
F           0.9776528    -1.2174099    -1.8975416
F           1.3631625     0.6258675    -0.8178907
C           2.6404152    -1.3205350    -0.1839093
H           2.4064216    -1.8808498     0.7258910
H           2.9642099    -2.0448012    -0.9367637
C           5.7549107     1.5788389     0.5729732
H           6.5374786     2.3082319     0.7634687
C           4.8639418     1.2247146     1.5876484
H           4.9504947     1.6774402     2.5717174
C           3.8618220     0.2856422     1.3426666
H           3.1711334     0.0111940     2.1368755
C           3.7353890    -0.3101737     0.0824241
C           4.6354421     0.0489800    -0.9275997
H           4.5505189    -0.4102684    -1.9099142
C           5.6388134     0.9877508    -0.6862188
H           6.3307010     1.2546673    -1.4805368
18
306_C8H7F3_1-0-4-13 (-105,) energy =    -608.5985999
C           1.2427707    -0.6481253    -0.6514977
F           0.3807044    -0.8056836     0.3813341
F           0.6693806    -1.2470301    -1.7226770
F           1.3128169     0.6678687    -0.9228529
C           2.6069080    -1.2813218    -0.3418116
H           2.4508224    -1.9910428     0.4763511
H           2.8894441    -1.8608954    -1.2251583
C           5.7239428     1.5596185     0.6045002
H           6.5083758     2.2724126     0.8438933
C           4.7445098     1.2497977     1.5508782
H           4.7633252     1.7211823     2.5298225
C           3.7419026     0.3312397     1.2435667
H           2.9814237     0.0924837     1.9837170
C           3.7004749    -0.2879567    -0.0125804
C           4.6854483     0.0286955    -0.9534477
H           4.6665795    -0.4462940    -1.9317086
C           5.6922664     0.9463256    -0.6481752
H           6.4517428     1.1796051    -1.3895410
18
306_C8H7F3_1-0-4-13 (-90,) energy =    -608.6011190
C           1.2621399    -0.6548198    -0.6685947
F           0.5158819    -0.5413119     0.4564454
F           0.5509144    -1.4321991    -1.5209780
F           1.3584095     0.5653804    -1.2255830
C           2.6192387    -1.2909799    -0.3750494
H           2.4618780    -2.0222643     0.4237995
H           2.9019621    -1.8462779    -1.2745687
C           5.7059246     1.5647407     0.6222748
H           6.4825542     2.2817503     0.8742054
C           4.7307930     1.2272026     1.5633217
H           4.7445636     1.6816527     2.5503323
C           3.7381027     0.3029144     1.2401311
H           2.9783228     0.0444611     1.9738983
C           3.7044625    -0.2951998    -0.0264638
C           4.6835990     0.0513424    -0.9630410
H           4.6681912    -0.4055880    -1.9498404
C           5.6799775     0.9745752    -0.6418127
H           6.4356947     1.2307024    -1.3794837
18
306_C8H7F3_1-0-4-13 (-75,) energy =    -608.6034066
C           1.2533844    -0.6013842    -0.6708123
F           0.6476021    -0.2046072     0.4729774
F           0.4101954    -1.4718796    -1.2758508
F           1.3653390     0.4738639    -1.4731563
C           2.5929949    -1.2654481    -0.3933668
H           2.4212188    -2.0062369     0.3943922
H           2.8636537    -1.8115233    -1.3024155
C           5.7075252     1.5373907     0.6649942
H           6.4910101     2.2414075     0.9319074
C           4.7380547     1.1782887     1.6036245
H           4.7627451     1.6032561     2.6034791
C           3.7356111     0.2710125     1.2620678
H           2.9798662    -0.0026344     1.9937318
C           3.6886117    -0.2897155    -0.0210403
C           4.6616827     0.0795128    -0.9559678
H           4.6344614    -0.3468404    -1.9560296
C           5.6669737     0.9858569    -0.6161719
H           6.4178705     1.2594553    -1.3524825
18
306_C8H7F3_1-0-4-13 (-60,) energy =    -608.6041953
C           1.4755897    -1.2746843    -0.1213029
F           2.2250600    -2.3136303     0.3031064
F           0.3980702    -1.7885084    -0.7588463
F           1.0219740    -0.6260672     0.9734539
C           2.2560161    -0.3530399    -1.0422389
H           2.5283442    -0.9436976    -1.9225775
H           1.5588214     0.4242790    -1.3721636
C           5.7481700     1.3443268     0.8531164
H           6.6261125     1.7709381     1.3305827
C           4.4989026     1.9456721     1.0179567
H           4.4003124     2.8407992     1.6261397
C           3.3729398     1.4002715     0.4015697
H           2.4014916     1.8690382     0.5361307
C           3.4807223     0.2495750    -0.3892365
C           4.7362114    -0.3493413    -0.5439952
H           4.8303063    -1.2465313    -1.1510519
C           5.8645728     0.1945556     0.0706060
H           6.8332059    -0.2795666    -0.0628563
18
306_C8H7F3_1-0-4-13 (-45,) energy =    -608.6033313
C           1.3992884    -1.2409490    -0.0479272
F           2.1557963    -2.0655740     0.7027300
F           0.5031936    -1.9973347    -0.7194696
F           0.6981983    -0.4587426     0.8091517
C           2.2322057    -0.4012700    -1.0045553
H           2.5195702    -1.0591888    -1.8308110
H           1.5660041     0.3650991    -1.4143482
C           5.7420729     1.3243215     0.8339916
H           6.6246217     1.7595554     1.2949193
C           4.4811456     1.8742129     1.0743751
H           4.3784807     2.7385432     1.7249656
C           3.3496480     1.3180997     0.4785218
H           2.3691511     1.7455541     0.6712918
C           3.4628101     0.2053750    -0.3652867
C           4.7295623    -0.3411547    -0.5970781
H           4.8302495    -1.2060816    -1.2485448
C           5.8636653     0.2148379    -0.0033506
H           6.8410772    -0.2190119    -0.1964735
18
306_C8H7F3_1-0-4-13 (-30,) energy =    -608.6010346
C           1.3689169    -1.2345790    -0.0344617
F           2.0971608    -1.8320700     0.9281098
F           0.6856305    -2.1928558    -0.6966914
F           0.4533637    -0.4596992     0.6016647
C           2.2187006    -0.3973233    -0.9886853
H           2.5050706    -1.0555971    -1.8149809
H           1.5633930     0.3758469    -1.4019148
C           5.7546447     1.2847663     0.8398098
H           6.6434810     1.7092266     1.2986555
C           4.4963760     1.8239592     1.1166906
H           4.4018703     2.6690798     1.7932556
C           3.3574346     1.2813145     0.5232303
H           2.3786586     1.7003556     0.7438235
C           3.4589310     0.1921377    -0.3523525
C           4.7227452    -0.3425154    -0.6217037
H           4.8150921    -1.1878892    -1.2996775
C           5.8651200     0.2002959    -0.0309975
H           6.8403941    -0.2245347    -0.2528886
18
306_C8H7F3_1-0-4-13 (-15,) energy =    -608.5985403
C           1.3559914    -1.2243395    -0.0414249
F           2.0056453    -1.5886658     1.0808029
F           0.9283802    -2.3512978    -0.6513707
F           0.2505516    -0.5473540     0.3591393
C           2.2122830    -0.3665884    -0.9847525
H           2.4868628    -1.0046253    -1.8298730
H           1.5622136     0.4232803    -1.3733211
C           5.7768181     1.2725681     0.8283151
H           6.6724697     1.6865430     1.2834533
C           4.5237817     1.8120493     1.1284769
H           4.4407238     2.6471664     1.8188111
C           3.3760706     1.2828851     0.5404009
H           2.4019603     1.7050854     0.7768075
C           3.4622859     0.2060858    -0.3518696
C           4.7210601    -0.3270437    -0.6463569
H           4.8023660    -1.1613522    -1.3393700
C           5.8728782     0.2022576    -0.0611869
H           6.8438478    -0.2219613    -0.3023304
18
306_C8H7F3_1-0-4-13 (0,) energy =    -608.5975091
C           1.2867444    -0.8659865    -0.7138580
F           1.7775660    -1.2654043     0.4753832
F           1.1401104    -1.9764615    -1.4737653
F           0.0449014    -0.3793765    -0.4851631
C           2.1740909     0.1782623    -1.4170223
H           2.4366911    -0.2363326    -2.3945760
H           1.5491293     1.0580270    -1.5946565
C           5.7353290     1.2599032     0.7813153
H           6.6305349     1.5311932     1.3342297
C           4.5559605     1.9857541     0.9560592
H           4.5288550     2.8252098     1.6456030
C           3.4085858     1.6377919     0.2427300
H           2.4931113     2.2085026     0.3815719
C           3.4226464     0.5615625    -0.6521693
C           4.6111927    -0.1579509    -0.8227692
H           4.6369500    -0.9936623    -1.5184884
C           5.7604091     0.1867126    -0.1110927
H           6.6754578    -0.3812169    -0.2560574
18
306_C8H7F3_1-0-4-13 (15,) energy =    -608.5985396
C           1.2330666    -0.7112305    -0.8181751
F           1.5973798    -1.0476873     0.4341885
F           1.3460768    -1.8369316    -1.5659836
F          -0.0782421    -0.3864873    -0.7904679
C           2.0790296     0.4264256    -1.4089680
H           2.2789845     0.1652007    -2.4523738
H           1.4463327     1.3189364    -1.4136132
C           5.7362629     1.2336464     0.7474270
H           6.6567067     1.4369928     1.2879273
C           4.6238994     2.0575343     0.9221509
H           4.6736894     2.9056198     1.5997456
C           3.4432058     1.7968443     0.2246675
H           2.5798173     2.4434518     0.3640390
C           3.3595934     0.7127610    -0.6549947
C           4.4820770    -0.1078603    -0.8252329
H           4.4284569    -0.9537504    -1.5068995
C           5.6623293     0.1485592    -0.1287735
H           6.5250423    -0.4963793    -0.2725405
18
306_C8H7F3_1-0-4-13 (30,) energy =    -608.6010522
C           1.2736850    -0.7351920    -0.9692927
F           1.4542230    -1.0125954     0.3360183
F           1.6736227    -1.8376915    -1.6550236
F          -0.0514892    -0.5934449    -1.1861048
C           2.0479885     0.4987324    -1.4280854
H           2.2243579     0.3807847    -2.5022722
H           1.3791812     1.3558475    -1.3023672
C           5.7190511     1.1859222     0.7462647
H           6.6427917     1.3593983     1.2915473
C           4.6442665     2.0631285     0.8912967
H           4.7260767     2.9231348     1.5505185
C           3.4580494     1.8389564     0.1897548
H           2.6228333     2.5255977     0.3075222
C           3.3332543     0.7400245    -0.6655022
C           4.4188676    -0.1352370    -0.8068269
H           4.3301794    -0.9964887    -1.4643907
C           5.6027654     0.0841653    -0.1047081
H           6.4355129    -0.6039127    -0.2230064
18
306_C8H7F3_1-0-4-13 (45,) energy =    -608.6033315
C           1.2557406    -0.7066584    -0.9129765
F           1.1659223    -0.7002811     0.4314803
F           1.8174201    -1.8888919    -1.2654617
F          -0.0004288    -0.6983581    -1.4118330
C           2.0629532     0.4673659    -1.4453154
H           2.2489484     0.2683872    -2.5058135
H           1.4129331     1.3464041    -1.3880589
C           5.7265395     1.1661573     0.7380302
H           6.6484240     1.3429189     1.2854196
C           4.6187854     1.9885511     0.9467985
H           4.6730420     2.8078074     1.6586551
C           3.4366474     1.7622924     0.2403371
H           2.5763838     2.4062310     0.4075130
C           3.3472267     0.7160925    -0.6840619
C           4.4637702    -0.1059827    -0.8854232
H           4.4028377    -0.9266549    -1.5954042
C           5.6457069     0.1168266    -0.1797998
H           6.5040965    -0.5279165    -0.3482715
18
306_C8H7F3_1-0-4-13 (60,) energy =    -608.6041952
C           1.2433390    -0.5981029    -0.8918746
F           0.8777592    -0.3322027     0.3797020
F           1.8879627    -1.7852853    -0.8898474
F           0.1091645    -0.7584092    -1.6125065
C           2.1006349     0.5102292    -1.4777933
H           2.3046958     0.2323629    -2.5171987
H           1.4810569     1.4123250    -1.4955834
C           5.7518590     1.1539840     0.7409360
H           6.6698337     1.3152920     1.2995642
C           4.6270109     1.9387278     0.9992435
H           4.6645036     2.7127081     1.7610704
C           3.4502151     1.7321560     0.2786715
H           2.5753877     2.3442173     0.4845918
C           3.3836016     0.7443190    -0.7105678
C           4.5158035    -0.0413309    -0.9595577
H           4.4727937    -0.8173946    -1.7194429
C           5.6931648     0.1622515    -0.2401277
H           6.5646783    -0.4531310    -0.4466011
18
306_C8H7F3_1-0-4-13 (75,) energy =    -608.6034067
C           1.0966103    -0.4269766    -0.7931001
F           0.4899760     0.2131246     0.2341340
F           1.6751181    -1.5387654    -0.3021896
F           0.1153546    -0.8210126    -1.6400290
C           2.0857741     0.4782731    -1.5104740
H           2.2955055     0.0075226    -2.4760405
H           1.5634377     1.4191973    -1.7121233
C           5.7498279     1.0962390     0.6961261
H           6.6711637     1.2523862     1.2506770
C           4.5847078     1.7710177     1.0666627
H           4.5953240     2.4533598     1.9123381
C           3.4040638     1.5735350     0.3514105
H           2.4980449     2.0968378     0.6458041
C           3.3716358     0.6999160    -0.7435108
C           4.5426837     0.0252049    -1.1047993
H           4.5299724    -0.6574918    -1.9512421
C           5.7259478     0.2225023    -0.3915523
H           6.6281652    -0.3061926    -0.6870509
18
306_C8H7F3_1-0-4-13 (90,) energy =    -608.6011197
C           1.0808200    -0.4055017    -0.8045311
F           0.2565465     0.2989559     0.0076997
F           1.6638712    -1.3674498    -0.0675752
F           0.2854340    -1.0204027    -1.7132826
C           2.0845643     0.5067414    -1.5065691
H           2.2961155     0.0468677    -2.4766359
H           1.5722513     1.4544621    -1.6994534
C           5.7645944     1.0669188     0.6889947
H           6.6901076     1.2089992     1.2403414
C           4.6019350     1.7316447     1.0849720
H           4.6187197     2.3924824     1.9474631
C           3.4168710     1.5519023     0.3726158
H           2.5124004     2.0683310     0.6852555
C           3.3760436     0.7049772    -0.7428330
C           4.5445961     0.0414458    -1.1304070
H           4.5267993    -0.6191471    -1.9942081
C           5.7328312     0.2214656    -0.4205212
H           6.6331857    -0.2986742    -0.7362001
18
306_C8H7F3_1-0-4-13 (105,) energy =    -608.5985996
C           1.0673095    -0.3953022    -0.8200726
F           0.0559263     0.3093334    -0.2585013
F           1.6061318    -1.1662655     0.1420209
F           0.4975400    -1.2261479    -1.7255954
C           2.0842012     0.5327481    -1.5000566
H           2.2904379     0.1019723    -2.4838869
H           1.5818621     1.4910642    -1.6636713
C           5.7811772     1.0394307     0.6811737
H           6.7106004     1.1689765     1.2289954
C           4.6224358     1.6975449     1.0996690
H           4.6463620     2.3409510     1.9750823
C           3.4322022     1.5340520     0.3925835
H           2.5323362     2.0488662     0.7217652
C           3.3805914     0.7094738    -0.7389931
C           4.5459019     0.0548023    -1.1502205
H           4.5205824    -0.5865339    -2.0282936
C           5.7401119     0.2181920    -0.4458581
H           6.6374869    -0.2955941    -0.7799109
18
306_C8H7F3_1-0-4-13 (120,) energy =    -608.5975047
C           1.1147055    -0.3322879    -0.9079535
F          -0.0471877     0.2612822    -0.5472856
F           1.5842498    -0.9701034     0.1821129
F           0.8042050    -1.2827287    -1.8194220
C           2.1080207     0.6920057    -1.4871248
H           2.2935348     0.4021247    -2.5251804
H           1.5926952     1.6567530    -1.5065833
C           5.8310316     0.9984922     0.6875784
H           6.7668601     1.0756886     1.2343765
C           4.7203877     1.7432194     1.0891803
H           4.7880074     2.4027764     1.9501523
C           3.5211971     1.6459684     0.3837941
H           2.6599204     2.2302162     0.6999685
C           3.4133889     0.8032603    -0.7291860
C           4.5327178     0.0626089    -1.1251217
H           4.4642193    -0.5925898    -1.9906476
C           5.7345041     0.1581844    -0.4224552
H           6.5951940    -0.4218477    -0.7443552
18
306_C8H7F3_1-0-4-13 (135,) energy =    -608.5984694
C           1.1958813    -0.8383452    -0.3550025
F           0.6073529    -1.6136092    -1.2946751
F           1.2887999     0.4001988    -0.8806870
F           0.3476281    -0.7585932     0.6956078
C           2.5584307    -1.4131748     0.0603570
H           2.4112085    -1.9294833     1.0140069
H           2.8169313    -2.1729361    -0.6827516
C           5.7296208     1.5107832     0.3313467
H           6.5278897     2.2446178     0.4016514
C           4.7753795     1.4135935     1.3465925
H           4.8273178     2.0716492     2.2098320
C           3.7548573     0.4680628     1.2574191
H           3.0142298     0.3954865     2.0507050
C           3.6702051    -0.3903613     0.1534738
C           4.6304498    -0.2855200    -0.8578115
H           4.5782906    -0.9472575    -1.7193922
C           5.6550543     0.6585836    -0.7707527
H           6.3949544     0.7256577    -1.5637884
18
306_C8H7F3_1-0-4-13 (150,) energy =    -608.6009502
C           1.2180742    -0.8582560    -0.3690889
F           0.4938629    -1.7656473    -1.0639147
F           1.3367556     0.2270490    -1.1618245
F           0.4914628    -0.4882738     0.7097528
C           2.5749856    -1.4356035     0.0311163
H           2.4298136    -1.9785025     0.9705259
H           2.8345436    -2.1734570    -0.7341111
C           5.7107100     1.5210356     0.3470345
H           6.5002215     2.2632068     0.4282085
C           4.7611250     1.3928389     1.3629658
H           4.8078950     2.0361150     2.2375493
C           3.7519897     0.4360811     1.2598152
H           3.0122468     0.3399745     2.0510767
C           3.6764604    -0.4035051     0.1409076
C           4.6301838    -0.2658446    -0.8727551
H           4.5820429    -0.9113533    -1.7466779
C           5.6428501     0.6893042    -0.7712825
H           6.3785640     0.7815508    -1.5656966
18
306_C8H7F3_1-0-4-13 (165,) energy =    -608.6033191
C           1.2114762    -0.8116817    -0.3499916
F           0.3545271    -1.7703805    -0.7710400
F           1.3153018     0.0884567    -1.3495188
F           0.6382681    -0.1839983     0.7017855
C           2.5587015    -1.4156331     0.0154181
H           2.4139978    -1.9823599     0.9412736
H           2.7992647    -2.1354471    -0.7731606
C           5.7144564     1.5130140     0.3904631
H           6.5090656     2.2480242     0.4859494
C           4.7658515     1.3693518     1.4051434
H           4.8181270     1.9936402     2.2930765
C           3.7495747     0.4222858     1.2838512
H           3.0106186     0.3163547     2.0738806
C           3.6672704    -0.3937310     0.1478564
C           4.6195480    -0.2398119    -0.8652584
H           4.5653007    -0.8653069    -1.7532106
C           5.6386989     0.7061054    -0.7453992
H           6.3730328     0.8109526    -1.5395048
18
306_C8H7F3_1-0-4-13 (180,) energy =    -608.6041938
C           1.2829101    -0.8261775    -0.4332735
F           0.3316356    -1.7821283    -0.5435196
F           1.4026152    -0.2346181    -1.6401320
F           0.8178244     0.1031078     0.4304859
C           2.5967706    -1.4259403     0.0363658
H           2.3905736    -1.9242421     0.9894280
H           2.8663826    -2.2017779    -0.6871375
C           5.7351880     1.5177202     0.4287094
H           6.5238417     2.2587319     0.5271365
C           4.8326852     1.3113981     1.4738740
H           4.9146854     1.8929519     2.3881663
C           3.8231320     0.3572861     1.3486684
H           3.1198590     0.2031620     2.1630403
C           3.7038981    -0.4046084     0.1797551
C           4.6097037    -0.1867612    -0.8647378
H           4.5227780    -0.7686125    -1.7791951
C           5.6212414     0.7663655    -0.7418982
H           6.3196069     0.9206236    -1.5600240
