22
392_C8H12N2_2-0-7-18 (-165,) energy =    -421.5757846
C           1.1546767    -0.3188885     0.4524043
H           0.8694653     0.7492655     0.4469343
C          -0.0939674    -1.1744140     0.2320502
H          -0.8015235    -0.9877417     1.0470880
H           0.1533629    -2.2414771     0.2346956
H          -0.6037253    -0.9397168    -0.7069705
H           1.5369882    -0.5388029     1.4539048
N           2.2263710    -0.5785288    -0.5061671
C           1.8410782    -0.8010862    -1.8961846
H           1.2687172     0.0499155    -2.3002685
H           1.2294929    -1.7030751    -1.9877115
H           2.7470645    -0.9269988    -2.4847347
C           6.1229264     0.6800645     0.2313403
H           7.1595902     0.9687479     0.3697029
C           5.1521902     0.9150421     1.2073128
H           5.4145754     1.4085907     2.1400224
C           3.8360029     0.5331563     0.9858024
H           3.0854402     0.7499103     1.7348046
C           3.5062593    -0.1096898    -0.2342223
N           4.4414166    -0.3123453    -1.1837512
C           5.6968006     0.0715674    -0.9462529
H           6.4037970    -0.1210439    -1.7531279
22
392_C8H12N2_2-0-7-18 (-150,) energy =    -421.5757310
C           1.1001554    -0.2280755     0.3977317
H           0.6686702     0.7818074     0.2750677
C          -0.0139181    -1.2742220     0.2944426
H          -0.7451935    -1.1034517     1.0920806
H           0.3904548    -2.2855925     0.4102771
H          -0.5485224    -1.2239950    -0.6588358
H           1.5083552    -0.2803682     1.4090502
N           2.1886710    -0.4468661    -0.5474937
C           1.8080082    -0.6881143    -1.9342525
H           1.1116767     0.0880740    -2.2888233
H           1.3219762    -1.6631181    -2.0490966
H           2.7066629    -0.6734496    -2.5470119
C           6.1440271     0.5660628     0.2488445
H           7.1948480     0.7882346     0.4019704
C           5.1746818     0.8702533     1.2077219
H           5.4532520     1.3559054     2.1399019
C           3.8405895     0.5725063     0.9686875
H           3.0943732     0.8526836     1.7011996
C           3.4881532    -0.0609064    -0.2505514
N           4.4233352    -0.3285236    -1.1842780
C           5.6968357    -0.0202393    -0.9315695
H           6.4011633    -0.2611889    -1.7277486
22
392_C8H12N2_2-0-7-18 (-135,) energy =    -421.5766138
C           0.9078980    -0.2438292    -0.1556031
H           0.4205753    -0.3586319    -1.1386469
C          -0.0511739    -0.7037684     0.9457589
H          -0.9879006    -0.1370692     0.8898061
H           0.3904974    -0.5480543     1.9358077
H          -0.3013887    -1.7655195     0.8524838
H           1.1094752     0.8220344    -0.0422414
N           2.1788823    -0.9747580    -0.1648349
C           2.1026209    -2.3082012    -0.7541538
H           2.9626892    -2.9028016    -0.4464819
H           2.0908845    -2.2789855    -1.8544140
H           1.1885525    -2.7949055    -0.4044116
C           5.8496243     0.9307773    -0.5745037
H           6.8309598     1.3736198    -0.7096179
C           4.8244899     1.6000286     0.1040642
H           4.9951803     2.5863627     0.5285224
C           3.5878234     0.9945341     0.2563642
H           2.8088364     1.4905778     0.8242061
C           3.3842135    -0.2922838    -0.3025843
N           4.3732524    -0.9409671    -0.9425156
C           5.5634968    -0.3398064    -1.0591212
H           6.3275047    -0.9158054    -1.5807490
22
392_C8H12N2_2-0-7-18 (-120,) energy =    -421.5775534
C           0.8779289    -0.2706519    -0.2122547
H           0.2844111    -0.5158124    -1.1064769
C           0.0722098    -0.6141212     1.0446719
H          -0.8884153    -0.0854973     1.0400647
H           0.6203932    -0.3299517     1.9493089
H          -0.1366204    -1.6878677     1.1032310
H           1.0599508     0.8051778    -0.2602746
N           2.1538897    -0.9806707    -0.2965934
C           2.0868952    -2.3177590    -0.8730994
H           2.9526418    -2.9033684    -0.5640558
H           2.0693864    -2.2984225    -1.9735296
H           1.1762167    -2.8073505    -0.5155921
C           5.8346594     0.9274769    -0.4774394
H           6.8209790     1.3728058    -0.5556693
C           4.7716088     1.5914297     0.1453596
H           4.9159571     2.5765721     0.5823201
C           3.5292815     0.9834733     0.2262074
H           2.7184249     1.4758287     0.7508931
C           3.3608183    -0.3020344    -0.3491445
N           4.3864761    -0.9473990    -0.9352675
C           5.5787208    -0.3421672    -0.9824938
H           6.3724896    -0.9139043    -1.4629001
22
392_C8H12N2_2-0-7-18 (-105,) energy =    -421.5782229
C           0.8485632    -0.2977338    -0.2557272
H           0.1651466    -0.6537643    -1.0384359
C           0.2107798    -0.5211197     1.1204012
H          -0.7586055    -0.0123729     1.1839672
H           0.8552893    -0.1375852     1.9186579
H           0.0463147    -1.5880538     1.3075573
H           0.9860191     0.7714459    -0.4431974
N           2.1241253    -0.9866994    -0.4269744
C           2.0702431    -2.3268679    -0.9946377
H           2.9459629    -2.8988892    -0.6881183
H           2.0455032    -2.3140779    -2.0948964
H           1.1678553    -2.8267921    -0.6292395
C           5.8042426     0.9217672    -0.3779230
H           6.7926189     1.3688438    -0.3981279
C           4.7052519     1.5826857     0.1818742
H           4.8215149     2.5685523     0.6256263
C           3.4607316     0.9732792     0.1893532
H           2.6187246     1.4666991     0.6607729
C           3.3294428    -0.3133237    -0.3946349
N           4.3896037    -0.9562823    -0.9218753
C           5.5800200    -0.3475965    -0.8998976
H           6.4015393    -0.9162044    -1.3354306
22
392_C8H12N2_2-0-7-18 (-90,) energy =    -421.5784263
C           0.8011495    -0.2783340    -0.2420416
H           0.0357074    -0.6876012    -0.9114317
C           0.3702455    -0.4820780     1.2167642
H          -0.5930700     0.0064247     1.4068404
H           1.1100446    -0.0642003     1.9077283
H           0.2622316    -1.5480788     1.4457550
H           0.8597248     0.7902697    -0.4753006
N           2.0685696    -0.9112910    -0.5810363
C           2.0604020    -2.2800376    -1.0837769
H           2.7233314    -2.9234352    -0.4970168
H           2.3958583    -2.3306482    -2.1268975
H           1.0404355    -2.6671638    -1.0177958
C           5.7704649     0.9217510    -0.2852502
H           6.7677995     1.3467581    -0.2422380
C           4.6494336     1.6191691     0.1780899
H           4.7555050     2.6145889     0.6027424
C           3.3930577     1.0384320     0.1088632
H           2.5303951     1.5699208     0.4923803
C           3.2757035    -0.2611154    -0.4499864
N           4.3569989    -0.9404800    -0.8839903
C           5.5549902    -0.3538474    -0.7960480
H           6.3922820    -0.9487720    -1.1608105
22
392_C8H12N2_2-0-7-18 (-75,) energy =    -421.5787487
C           0.8937701    -0.2645150    -0.2191955
H           0.0854075    -0.7318321    -0.7918431
C           0.6907706    -0.5381872     1.2782288
H          -0.2748519    -0.1409746     1.6129864
H           1.4788366    -0.0693162     1.8764780
H           0.7045279    -1.6138377     1.4855107
H           0.8189773     0.8099979    -0.4200962
N           2.1503991    -0.7655506    -0.7654415
C           2.1849019    -2.1600154    -1.1916571
H           2.4245755    -2.8518239    -0.3703066
H           2.9436612    -2.2919158    -1.9631909
H           1.2036655    -2.4231957    -1.5975653
C           5.8127649     1.0781180    -0.1256227
H           6.8000043     1.5080782     0.0073483
C           4.6503508     1.7733256     0.2233130
H           4.7107472     2.7757904     0.6401630
C           3.4086866     1.1841303     0.0427043
H           2.5115588     1.7242166     0.3194129
C           3.3480367    -0.1232005    -0.5055376
N           4.4689656    -0.7994841    -0.8259416
C           5.6509007    -0.2027401    -0.6428218
H           6.5205346    -0.7962921    -0.9245480
22
392_C8H12N2_2-0-7-18 (-60,) energy =    -421.5776654
C           0.8664489    -0.3166854    -0.2121505
H           0.0540749    -0.8960631    -0.6600508
C           0.8465776    -0.4792642     1.3146464
H          -0.1195703    -0.1515007     1.7159783
H           1.6320803     0.1136596     1.7916565
H           0.9941482    -1.5266492     1.6011477
H           0.6648476     0.7310763    -0.4715938
N           2.1040291    -0.7414468    -0.8717079
C           2.1460047    -2.1288183    -1.3266209
H           2.3334113    -2.8440164    -0.5110432
H           2.9444697    -2.2500720    -2.0580349
H           1.1866394    -2.3700088    -1.7940638
C           5.7678983     1.0205536    -0.0307483
H           6.7542020     1.4311965     0.1586723
C           4.6023897     1.7510211     0.2262739
H           4.6595364     2.7631701     0.6193779
C           3.3630930     1.1850300    -0.0264287
H           2.4588007     1.7536174     0.1559696
C           3.3080831    -0.1347151    -0.5432778
N           4.4289100    -0.8387206    -0.7872754
C           5.6112082    -0.2634659    -0.5403138
H           6.4833615    -0.8784385    -0.7613216
22
392_C8H12N2_2-0-7-18 (-45,) energy =    -421.5748259
C           0.8459324    -0.3954216    -0.1776640
H           0.0875913    -1.1163019    -0.4928321
C           0.9580634    -0.3982997     1.3530719
H          -0.0225253    -0.1804117     1.7921924
H           1.6654315     0.3501835     1.7168784
H           1.2849273    -1.3768654     1.7233053
H           0.4787387     0.5889121    -0.5045176
N           2.0737532    -0.7225676    -0.9224032
C           2.1300443    -2.0795162    -1.4649232
H           2.3158920    -2.8457416    -0.6966917
H           2.9353417    -2.1479763    -2.1960120
H           1.1776591    -2.2953329    -1.9584330
C           5.7354286     0.9728619     0.0530923
H           6.7199834     1.3676330     0.2817334
C           4.5751294     1.7361162     0.2303692
H           4.6365429     2.7592466     0.5930988
C           3.3401243     1.1883942    -0.0751440
H           2.4363901     1.7801191     0.0215125
C           3.2830099    -0.1458870    -0.5509417
N           4.3971590    -0.8761272    -0.7312973
C           5.5786107    -0.3172064    -0.4399314
H           6.4484729    -0.9512993    -0.6095066
22
392_C8H12N2_2-0-7-18 (-30,) energy =    -421.5711787
C           0.8390787    -0.4939445    -0.1443179
H           0.2046454    -1.3689980    -0.3088983
C           1.0069660    -0.2872511     1.3656297
H           0.0144285    -0.2263002     1.8269506
H           1.5481163     0.6272685     1.6136431
H           1.5423660    -1.1272732     1.8227655
H           0.2849222     0.3632098    -0.5581722
N           2.0680552    -0.7141530    -0.9351039
C           2.1281803    -2.0108947    -1.6078803
H           2.2952031    -2.8502521    -0.9154235
H           2.9450029    -2.0125166    -2.3295284
H           1.1838535    -2.1713293    -2.1379299
C           5.7365377     0.9280919     0.1047263
H           6.7220225     1.3082066     0.3536093
C           4.5867855     1.7157738     0.2391127
H           4.6585606     2.7447238     0.5829830
C           3.3517795     1.1859915    -0.0969636
H           2.4570735     1.7979984    -0.0564719
C           3.2816587    -0.1560804    -0.5461394
N           4.3871130    -0.9056993    -0.6965114
C           5.5708187    -0.3628587    -0.3836158
H           6.4346075    -1.0107579    -0.5305026
22
392_C8H12N2_2-0-7-18 (-15,) energy =    -421.5685557
C           0.8385208    -0.6176341    -0.0834625
H           0.3842614    -1.6156398    -0.0641988
C           0.9752766    -0.1526311     1.3687941
H          -0.0009945    -0.2586210     1.8555820
H           1.2802943     0.8902294     1.4675203
H           1.6959270    -0.7681619     1.9178471
H           0.1173172     0.0329917    -0.6031770
N           2.0704657    -0.7391391    -0.8876478
C           2.1157761    -1.9519418    -1.6985536
H           2.2780002    -2.8619901    -1.1006430
H           2.9254402    -1.8819794    -2.4249984
H           1.1645336    -2.0485912    -2.2337703
C           5.7586163     0.8803426     0.1232289
H           6.7492289     1.2505324     0.3668236
C           4.6168856     1.6763655     0.2697676
H           4.7003899     2.7041468     0.6145757
C           3.3748384     1.1605071    -0.0647669
H           2.4903787     1.7861642    -0.0331521
C           3.2875263    -0.1800173    -0.5128774
N           4.3882366    -0.9348171    -0.6831837
C           5.5788894    -0.4035578    -0.3800962
H           6.4370527    -1.0543004    -0.5466431
22
392_C8H12N2_2-0-7-18 (0,) energy =    -421.5674834
C           0.8529594    -0.7143143    -0.0345731
H           0.5729233    -1.7629994     0.1481698
C           0.8984877    -0.0262315     1.3302769
H          -0.0299965    -0.2684028     1.8594959
H           0.9629777     1.0621560     1.2694139
H           1.7354152    -0.3851032     1.9372858
H           0.0343332    -0.2836870    -0.6312919
N           2.0782017    -0.7445132    -0.8537796
C           2.1115772    -1.8980730    -1.7444248
H           2.2939914    -2.8437918    -1.2107451
H           2.8998126    -1.7746372    -2.4871078
H           1.1447714    -1.9687082    -2.2567734
C           5.7901018     0.8454062     0.1287803
H           6.7869638     1.2065038     0.3602442
C           4.6529679     1.6331916     0.3382251
H           4.7450985     2.6462855     0.7221763
C           3.4016696     1.1324676     0.0143353
H           2.5228197     1.7592311     0.0958312
C           3.2991830    -0.1886588    -0.4838887
N           4.3964102    -0.9351029    -0.7118998
C           5.5954765    -0.4165556    -0.4221921
H           6.4478801    -1.0599122    -0.6395578
22
392_C8H12N2_2-0-7-18 (15,) energy =    -421.5685560
C           1.0368223    -0.9353980     0.1317304
H           0.8011917    -1.5667762     1.0030836
C           0.6755134     0.5172285     0.4534187
H          -0.4043228     0.5696475     0.6335371
H           0.9111711     1.1809207    -0.3854654
H           1.1765022     0.9068930     1.3408288
H           0.3668394    -1.2670324    -0.6706757
N           2.4096316    -1.2180972    -0.3318817
C           2.4617919    -2.1512828    -1.4526229
H           1.8331514    -3.0167785    -1.2149297
H           3.4866159    -2.4894680    -1.6061650
H           2.1089738    -1.7083044    -2.3968254
C           5.6265384     1.3894231    -0.0180152
H           6.4850387     2.0527898     0.0066354
C           4.7860859     1.2295242     1.0895868
H           4.9895952     1.7563038     2.0187287
C           3.7080813     0.3621560     1.0114352
H           3.0932110     0.1662769     1.8822108
C           3.4603922    -0.3155838    -0.2071213
N           4.2858685    -0.1851979    -1.2615699
C           5.3364702     0.6368756    -1.1509287
H           5.9773168     0.6969262    -2.0303336
22
392_C8H12N2_2-0-7-18 (30,) energy =    -421.5711787
C           1.0971349    -0.9711726     0.2432968
H           1.0171784    -1.4059494     1.2520880
C           0.6721492     0.5005825     0.3078954
H          -0.3657592     0.5542102     0.6565063
H           0.7224494     0.9706160    -0.6809444
H           1.2852458     1.0923021     0.9895702
H           0.3789485    -1.5155278    -0.3757299
N           2.4345263    -1.2625403    -0.3140909
C           2.4178485    -2.0797894    -1.5263704
H           1.7736935    -2.9475035    -1.3514892
H           3.4269355    -2.4260596    -1.7495637
H           2.0504829    -1.5355998    -2.4100072
C           5.6333208     1.3622069     0.0242151
H           6.4888658     2.0288778     0.0588727
C           4.7894581     1.1875443     1.1277607
H           4.9854157     1.7086986     2.0616439
C           3.7129732     0.3206938     1.0350150
H           3.0826523     0.1264183     1.8962001
C           3.4780652    -0.3507788    -0.1904604
N           4.3002786    -0.2006917    -1.2430850
C           5.3452854     0.6279696    -1.1205242
H           5.9832579     0.7075695    -2.0003747
22
392_C8H12N2_2-0-7-18 (45,) energy =    -421.5748262
C           1.1435361    -0.9819145     0.3355438
H           1.2239944    -1.2434699     1.4012684
C           0.6050573     0.4505133     0.2172822
H          -0.3713711     0.5161511     0.7113761
H           0.4734067     0.7379159    -0.8322776
H           1.2697613     1.1812526     0.6832652
H           0.4215729    -1.6832984    -0.0897872
N           2.4321853    -1.2512932    -0.3246433
C           2.3416476    -1.9619768    -1.5997366
H           1.6618034    -2.8103352    -1.4761443
H           3.3269626    -2.3313282    -1.8831798
H           1.9769431    -1.3290487    -2.4232518
C           5.6653881     1.3228455     0.0695284
H           6.5322947     1.9736094     0.1191143
C           4.7881291     1.1782038     1.1510300
H           4.9657132     1.7114428     2.0817580
C           3.6943961     0.3355688     1.0396339
H           3.0277637     0.1846092     1.8816883
C           3.4840240    -0.3534976    -0.1813226
N           4.3313584    -0.2235167    -1.2168359
C           5.3873303     0.5878291    -1.0769870
H           6.0437054     0.6518867    -1.9444876
22
392_C8H12N2_2-0-7-18 (60,) energy =    -421.5776655
C           1.1965866    -0.9916851     0.4057832
H           1.4104316    -1.1189738     1.4752723
C           0.5022228     0.3590843     0.1794747
H          -0.4168997     0.4146730     0.7745105
H           0.2315922     0.4911028    -0.8741876
H           1.1458663     1.1947220     0.4685253
H           0.5205115    -1.8086460     0.1379208
N           2.4319909    -1.1967173    -0.3550040
C           2.2846939    -1.8385009    -1.6588414
H           1.5783106    -2.6680689    -1.5594893
H           3.2493332    -2.2234013    -1.9883566
H           1.9191283    -1.1520885    -2.4379179
C           5.7414139     1.2669143     0.1083326
H           6.6305854     1.8852312     0.1744541
C           4.8177710     1.1872555     1.1564668
H           4.9763081     1.7444887     2.0765724
C           3.6932599     0.3880711     1.0265467
H           2.9841981     0.3111402     1.8424060
C           3.5053833    -0.3349384    -0.1792018
N           4.3918365    -0.2557904    -1.1888221
C           5.4716240     0.5182136    -1.0316479
H           6.1562933     0.5396746    -1.8792586
22
392_C8H12N2_2-0-7-18 (75,) energy =    -421.5787482
C           1.1127750    -1.0388674     0.4724820
H           1.4689701    -1.0657782     1.5082855
C           0.2579321     0.2153943     0.2392955
H          -0.5825072     0.2430126     0.9429343
H          -0.1511304     0.2277017    -0.7769561
H           0.8484374     1.1271756     0.3761371
H           0.4952393    -1.9346937     0.3463555
N           2.2529622    -1.1748852    -0.4275417
C           2.0075953    -1.7887543    -1.7277317
H           1.2406526    -2.5597634    -1.6084289
H           2.9251158    -2.2447435    -2.0999848
H           1.6670310    -1.0657045    -2.4839423
C           5.7399150     1.0424720    -0.0448328
H           6.6741160     1.5926507    -0.0028306
C           4.8216721     1.0632329     1.0100452
H           5.0273235     1.6381272     1.9097910
C           3.6365708     0.3508794     0.9125856
H           2.9261169     0.3740481     1.7297969
C           3.3857946    -0.3965285    -0.2671875
N           4.2630640    -0.4029079    -1.2902726
C           5.3982265     0.2915863    -1.1644785
H           6.0700607     0.2444522    -2.0214198
22
392_C8H12N2_2-0-7-18 (90,) energy =    -421.5784264
C           1.1607078    -1.0379921     0.4650151
H           1.5963809    -1.0397533     1.4699789
C           0.1265396     0.0884357     0.3349216
H          -0.6574644    -0.0172978     1.0944521
H          -0.3502239     0.0673466    -0.6513481
H           0.5958233     1.0700881     0.4592978
H           0.6625738    -2.0081751     0.3548766
N           2.2321727    -0.9772998    -0.5199936
C           2.0647063    -1.6791160    -1.7870709
H           1.0455536    -2.0712283    -1.8338984
H           2.7731951    -2.5106204    -1.8866974
H           2.2271690    -1.0093416    -2.6371593
C           5.8211437     1.0165502     0.0244246
H           6.7847446     1.5081754     0.1077359
C           4.8421859     1.1359675     1.0169783
H           5.0261930     1.7374988     1.9039623
C           3.6224082     0.4948609     0.8697131
H           2.8564416     0.6103800     1.6271435
C           3.4023187    -0.2864979    -0.2947310
N           4.3394358    -0.3911944    -1.2590596
C           5.5022387     0.2459059    -1.0886232
H           6.2212049     0.1266453    -1.8991170
22
392_C8H12N2_2-0-7-18 (105,) energy =    -421.5782230
C           1.2023340    -1.0356077     0.4322569
H           1.6875752    -0.9654995     1.4104259
C           0.0173199    -0.0661488     0.3529935
H          -0.7146901    -0.2858549     1.1394167
H          -0.4905475    -0.1464057    -0.6145076
H           0.3499420     0.9708012     0.4704621
H           0.8367762    -2.0682993     0.3524541
N           2.1965048    -0.8296135    -0.6166777
C           2.0241832    -1.6023183    -1.8391473
H           0.9536722    -1.7002797    -2.0444472
H           2.4623083    -2.6090643    -1.7625898
H           2.5042778    -1.0931625    -2.6747969
C           5.8891043     0.9450257     0.0183135
H           6.8770295     1.3797873     0.1285840
C           4.8796362     1.1541706     0.9644590
H           5.0621411     1.7753284     1.8380852
C           3.6306301     0.5822160     0.7825246
H           2.8361501     0.7788556     1.4930240
C           3.4121998    -0.2251123    -0.3638321
N           4.3792573    -0.4162308    -1.2823069
C           5.5688276     0.1618788    -1.0853780
H           6.3104505    -0.0231335    -1.8623357
22
392_C8H12N2_2-0-7-18 (120,) energy =    -421.5775534
C           1.2170995    -0.9801963     0.4464010
H           1.6849391    -0.7651102     1.4095785
C          -0.0968545    -0.2038806     0.3126916
H          -0.7876290    -0.4785618     1.1186976
H          -0.5918061    -0.4191774    -0.6405350
H           0.0811508     0.8757498     0.3610368
H           1.0058702    -2.0606489     0.4488624
N           2.1700114    -0.6989269    -0.6269855
C           1.9906950    -1.4839526    -1.8419887
H           0.9190215    -1.5903242    -2.0344656
H           2.4368693    -2.4869940    -1.7615905
H           2.4574432    -0.9786483    -2.6874332
C           5.9583812     0.8671534     0.0191121
H           6.9681029     1.2481248     0.1313032
C           4.9549221     1.1475932     0.9535692
H           5.1645206     1.7730424     1.8179528
C           3.6777855     0.6433693     0.7686317
H           2.8880275     0.8999065     1.4655302
C           3.4236857    -0.1699375    -0.3653477
N           4.3844447    -0.4279348    -1.2722048
C           5.6033749     0.0873895    -1.0756581
H           6.3385641    -0.1493750    -1.8445414
22
392_C8H12N2_2-0-7-18 (135,) energy =    -421.5766150
C           1.2253758    -0.9336321     0.4433840
H           1.6385304    -0.5698830     1.3850659
C          -0.1910236    -0.3825988     0.2573414
H          -0.8274490    -0.6886296     1.0958209
H          -0.6558771    -0.7524632    -0.6623468
H          -0.1787758     0.7115725     0.2116314
H           1.1832658    -2.0322964     0.5332606
N           2.1364088    -0.5796451    -0.6497474
C           1.9615398    -1.3776400    -1.8595648
H           0.8919701    -1.4831652    -2.0592767
H           2.4058496    -2.3805676    -1.7668495
H           2.4348218    -0.8809603    -2.7062759
C           6.0025303     0.7893115     0.0241679
H           7.0289936     1.1204459     0.1429461
C           5.0050221     1.1325289     0.9441699
H           5.2367186     1.7584515     1.8024801
C           3.7064835     0.6905851     0.7502957
H           2.9231223     0.9967296     1.4343948
C           3.4228113    -0.1233566    -0.3751911
N           4.3782468    -0.4416625    -1.2662406
C           5.6204637     0.0143141    -1.0641962
H           6.3502303    -0.2694954    -1.8221234
22
392_C8H12N2_2-0-7-18 (150,) energy =    -421.5757307
C           1.1908000    -0.6402914     0.5295101
H           1.3838713     0.1871634     1.2151340
C          -0.2447005    -0.4900165     0.0165988
H          -0.9292399    -0.4331929     0.8700202
H          -0.5590704    -1.3357401    -0.6022228
H          -0.3533485     0.4273296    -0.5720441
H           1.2755373    -1.5727866     1.1163038
N           2.1914786    -0.6004425    -0.5304338
C           1.9442740    -1.4479750    -1.6908583
H           1.0985598    -1.0776345    -2.2805189
H           1.7216468    -2.4807890    -1.3798278
H           2.8333534    -1.4441352    -2.3175878
C           6.0261641     0.9215131     0.0025651
H           7.0324730     1.3211591     0.0706672
C           5.1659839     0.8882685     1.1028632
H           5.4942861     1.2568397     2.0717801
C           3.8878160     0.3641175     0.9726012
H           3.2470987     0.3050950     1.8431531
C           3.4696750    -0.1140039    -0.2957695
N           4.3123454    -0.1042405    -1.3483861
C           5.5396170     0.3954235    -1.1905527
H           6.1699250     0.3720438    -2.0794978
22
392_C8H12N2_2-0-7-18 (165,) energy =    -421.5757850
C           1.1961694    -0.5234555     0.5064648
H           1.2998324     0.3986620     1.0863282
C          -0.2606887    -0.6264965     0.0519616
H          -0.9128780    -0.5559719     0.9291284
H          -0.4794359    -1.5756224    -0.4459818
H          -0.5197103     0.1903850    -0.6302957
H           1.4232695    -1.3598080     1.1929216
N           2.1568899    -0.4749166    -0.5934485
C           1.9055437    -1.3436350    -1.7390897
H           0.9731228    -1.0646397    -2.2377997
H           1.8363815    -2.4019902    -1.4387835
H           2.7293577    -1.2301343    -2.4401065
C           6.0659294     0.8128711     0.0180127
H           7.0932374     1.1499892     0.1081510
C           5.1798044     0.8414304     1.0968589
H           5.5060760     1.2000768     2.0701551
C           3.8748630     0.3951485     0.9379324
H           3.2058357     0.3921113     1.7886343
C           3.4613474    -0.0698792    -0.3360790
N           4.3267746    -0.1180299    -1.3686671
C           5.5765557     0.3108727    -1.1849712
H           6.2250441     0.2461395    -2.0586467
22
392_C8H12N2_2-0-7-18 (180,) energy =    -421.5751935
C           1.1799661    -0.4200257     0.5177726
H           1.1398049     0.5615071     1.0057089
C          -0.2409772    -0.8077498     0.1112573
H          -0.8783388    -0.7809474     1.0015777
H          -0.2961190    -1.8177521    -0.3051345
H          -0.6588315    -0.1075628    -0.6199170
H           1.5363450    -1.1345896     1.2807919
N           2.1358965    -0.3420140    -0.5906889
C           1.8921320    -1.1483269    -1.7831758
H           0.8992515    -0.9360341    -2.1852229
H           1.9664874    -2.2293751    -1.5815900
H           2.6417763    -0.8908518    -2.5280374
C           6.0765517     0.7509442     0.1657370
H           7.1170023     1.0286190     0.2983631
C           5.1393344     0.8810666     1.1932124
H           5.4350258     1.2686359     2.1651861
C           3.8192597     0.5084837     0.9814795
H           3.1011176     0.6038232     1.7854149
C           3.4468652     0.0056601    -0.2915396
N           4.3568496    -0.1321179    -1.2761566
C           5.6187956     0.2343963    -1.0431481
H           6.3049538     0.1006561    -1.8794003
