16
158_C4H9NO2_12-0-2-3 (-165,) energy =    -363.0381011
N           1.2264765    -0.9468659     0.0400301
H           1.3007186    -0.8146660     1.0404539
C           2.4066408    -1.0497356    -0.6270093
C           3.6551470    -0.8483286     0.2336423
O           3.3174350    -0.6183908     1.5883880
C           4.4462037    -0.4188728     2.4165753
H           4.0762185    -0.2537933     3.4314817
H           5.0290700     0.4591387     2.0984221
H           5.1087938    -1.2981092     2.4133995
H           4.2294736    -0.0061221    -0.1831930
H           4.2743927    -1.7522566     0.1236931
O           2.5236185    -1.3051006    -1.8196363
C          -0.0239575    -1.4152483    -0.5292364
H          -0.8219246    -0.6803122    -0.3770755
H          -0.3343924    -2.3699522    -0.0851497
H           0.1328957    -1.5560577    -1.5997916
16
158_C4H9NO2_12-0-2-3 (-150,) energy =    -363.0353151
N           1.1208491    -0.8464635     0.0003784
H           1.2261844    -0.7064154     0.9985078
C           2.3023586    -1.0149912    -0.6629808
C           3.5611442    -0.9024816     0.2004321
O           3.2424358    -0.5797417     1.5403165
C           4.3795622    -0.4885439     2.3763708
H           4.0230472    -0.2404986     3.3790998
H           5.0687151     0.2986123     2.0343251
H           4.9290390    -1.4419098     2.4147081
H           4.2307837    -0.1501879    -0.2443578
H           4.0736130    -1.8755295     0.1351428
O           2.4060677    -1.3098682    -1.8463432
C          -0.0911031    -1.5185012    -0.4457683
H          -0.9708931    -0.9003259    -0.2407734
H          -0.2178043    -2.4909056     0.0488891
H          -0.0114765    -1.6765711    -1.5223964
16
158_C4H9NO2_12-0-2-3 (-135,) energy =    -363.0305514
N           1.0797334    -0.7204359    -0.0376707
H           1.2065437    -0.5557650     0.9558702
C           2.2764967    -0.9048290    -0.6859487
C           3.5249794    -0.8931953     0.2006704
O           3.2189035    -0.4887100     1.5207192
C           4.3361761    -0.5250809     2.3875783
H           3.9897670    -0.2034510     3.3727395
H           5.1324237     0.1539081     2.0467295
H           4.7527221    -1.5414358     2.4654804
H           4.2866138    -0.2417559    -0.2539570
H           3.9200714    -1.9222296     0.1813999
O           2.3867326    -1.1937842    -1.8684228
C          -0.0593104    -1.5755073    -0.3623032
H          -0.9957791    -1.0702067    -0.1077692
H          -0.0139722    -2.5327549     0.1751861
H          -0.0463309    -1.7712933    -1.4357396
16
158_C4H9NO2_12-0-2-3 (-120,) energy =    -363.0242287
N           1.0656011    -0.6071076    -0.1208697
H           1.2076946    -0.3959930     0.8636458
C           2.2877171    -0.7997677    -0.7417935
C           3.5104867    -0.8921004     0.1763222
O           3.2119591    -0.4357127     1.4806221
C           4.2993665    -0.5598554     2.3772172
H           3.9601714    -0.1886700     3.3472938
H           5.1638681     0.0352125     2.0462361
H           4.6165950    -1.6090817     2.4829104
H           4.3469740    -0.3321776    -0.2675853
H           3.7955558    -1.9578525     0.1846867
O           2.4164026    -1.0613228    -1.9265120
C           0.0230304    -1.6194486    -0.3133555
H          -0.9481966    -1.2110670    -0.0194299
H           0.2185547    -2.5287890     0.2725718
H          -0.0164937    -1.8819413    -1.3721813
16
158_C4H9NO2_12-0-2-3 (-105,) energy =    -363.0171572
N           1.0036813    -0.4970073    -0.1910852
H           1.1518300    -0.2030672     0.7730207
C           2.2535299    -0.7048739    -0.7807778
C           3.4472221    -0.8774729     0.1649782
O           3.1408169    -0.4175396     1.4655970
C           4.1981406    -0.6063500     2.3868343
H           3.8549638    -0.2263276     3.3520373
H           5.1006802    -0.0549102     2.0828489
H           4.4570895    -1.6717382     2.4896260
H           4.3267678    -0.3644114    -0.2515720
H           3.6683541    -1.9587844     0.1686930
O           2.4045289    -0.9351837    -1.9662122
C           0.0790094    -1.6416660    -0.2043075
H          -0.9054123    -1.3125870     0.1400003
H           0.4208241    -2.4677233     0.4365714
H          -0.0189528    -2.0060914    -1.2292830
16
158_C4H9NO2_12-0-2-3 (-90,) energy =    -363.0127717
N           1.0909280    -0.2671207    -0.2319076
H           0.5988219     0.1091205    -1.0452677
C           2.2960426    -0.7682946    -0.7718498
C           3.4897540    -0.8149481     0.1753729
O           3.1057331    -1.1195649     1.4967893
C           4.1829728    -1.0425387     2.4084569
H           3.7862877    -1.2907686     3.3959175
H           4.6144181    -0.0293808     2.4388585
H           4.9840030    -1.7545591     2.1538484
H           3.9435424     0.1907118     0.1178255
H           4.2262836    -1.5340623    -0.2129875
O           2.4804136    -0.8779344    -1.9711448
C           0.1828485    -1.2541882     0.3926339
H          -0.1382700    -2.0341225    -0.3117339
H          -0.6998738    -0.7279262     0.7664586
H           0.6898493    -1.7225975     1.2385514
16
158_C4H9NO2_12-0-2-3 (-75,) energy =    -363.0185882
N           1.0609150    -0.3188304    -0.3305823
H           0.5314723    -0.0088013    -1.1459555
C           2.3090471    -0.7052996    -0.8230886
C           3.4658354    -0.8141126     0.1685061
O           3.0513104    -1.0732070     1.4908562
C           4.1269047    -1.0610914     2.4080839
H           3.7086883    -1.2661352     3.3965643
H           4.6300996    -0.0814293     2.4267003
H           4.8755394    -1.8323557     2.1672869
H           3.9878176     0.1565863     0.1050881
H           4.1643829    -1.5826577    -0.1958086
O           2.5712489    -0.6899864    -2.0157081
C           0.2377065    -1.2710034     0.4385339
H          -0.0992127    -2.1174754    -0.1756910
H          -0.6400704    -0.7441385     0.8237381
H           0.8156446    -1.6472748     1.2824135
16
158_C4H9NO2_12-0-2-3 (-60,) energy =    -363.0226930
N           1.0208800    -0.3377275    -0.3428275
H           0.4653518    -0.0296142    -1.1392146
C           2.3048106    -0.5535694    -0.8145829
C           3.4400828    -0.8012376     0.1803375
O           3.0237243    -0.8929198     1.5243721
C           4.1112039    -1.0363695     2.4164966
H           3.6943159    -1.0882489     3.4252219
H           4.7984978    -0.1780174     2.3551954
H           4.6842723    -1.9555491     2.2156569
H           4.1334053     0.0436257     0.0400469
H           3.9807637    -1.7092127    -0.1347323
O           2.6063186    -0.3608066    -1.9842475
C           0.2919017    -1.3248175     0.4665568
H          -0.0132240    -2.1985923    -0.1260154
H          -0.6042732    -0.8516500     0.8785881
H           0.9229927    -1.6506615     1.2918296
16
158_C4H9NO2_12-0-2-3 (-45,) energy =    -363.0256750
N           0.9650582    -0.3422787    -0.3313208
H           0.3683237     0.0021012    -1.0792477
C           2.2656907    -0.3664233    -0.7829395
C           3.3748994    -0.7979136     0.1797312
O           3.0230263    -0.6339820     1.5373587
C           4.0850411    -0.9665096     2.4104353
H           3.7257933    -0.8008336     3.4290372
H           4.9669730    -0.3317898     2.2324250
H           4.3880169    -2.0203484     2.3015289
H           4.2504071    -0.1882132    -0.0846776
H           3.6401439    -1.8498846    -0.0334732
O           2.5748271     0.0401772    -1.8952130
C           0.3464135    -1.4071387     0.4607581
H           0.1238176    -2.2990347    -0.1421493
H          -0.5888897    -1.0344165     0.8886576
H           1.0118755    -1.6778748     1.2796070
16
158_C4H9NO2_12-0-2-3 (-30,) energy =    -363.0275804
N           0.9673031    -0.4335368    -0.4176940
H           0.3582229    -0.0893051    -1.1530761
C           2.2811976    -0.3235699    -0.7928186
C           3.3590980    -0.8404510     0.1639710
O           3.0496254    -0.5626510     1.5158126
C           4.0829314    -0.9636488     2.3952784
H           3.7611167    -0.7031288     3.4065418
H           5.0266408    -0.4424401     2.1723526
H           4.2645511    -2.0492388     2.3425733
H           4.2933411    -0.3515141    -0.1422791
H           3.4889971    -1.9280156     0.0091750
O           2.6114997     0.2095546    -1.8449530
C           0.3963907    -1.4673358     0.4395277
H           0.2328828    -2.4132431    -0.0969367
H          -0.5661283    -1.1190273     0.8260251
H           1.0601231    -1.6386429     1.2861026
16
158_C4H9NO2_12-0-2-3 (-15,) energy =    -363.0286378
N           1.2996648    -2.0928615    -0.1100130
H           0.9051447    -3.0176435     0.0196145
C           2.6669789    -2.1147281    -0.1449623
C           3.4037804    -0.7771344    -0.3486838
O           3.1853004     0.1870101     0.6688633
C           3.7657634    -0.1752591     1.9123657
H           3.5652365     0.6469735     2.6035985
H           4.8532590    -0.3132598     1.8184907
H           3.3324014    -1.1010785     2.3174435
H           3.0737655    -0.3094539    -1.2831485
H           4.4683399    -1.0307695    -0.4346644
O           3.2919061    -3.1687116    -0.0944427
C           0.4053424    -0.9557087     0.0547165
H          -0.3157454    -0.9003110    -0.7701887
H           0.9841350    -0.0342167     0.0902055
H          -0.1532330    -1.0346581     0.9960089
16
158_C4H9NO2_12-0-2-3 (0,) energy =    -363.0294284
N           1.2969348    -2.1035655     0.0250489
H           0.8967385    -3.0304875     0.1085399
C           2.6505457    -2.1242794    -0.1567831
C           3.3703832    -0.7776559    -0.3626158
O           3.1710064     0.1762200     0.6674131
C           3.7735181    -0.1984745     1.8967874
H           3.5924428     0.6205287     2.5971553
H           4.8579843    -0.3428084     1.7804671
H           3.3401495    -1.1233317     2.3036946
H           3.0138788    -0.3040088    -1.2847595
H           4.4341869    -1.0218128    -0.4799527
O           3.2785122    -3.1771706    -0.1932472
C           0.3927629    -0.9633548     0.0559616
H          -0.1504015    -0.8438181    -0.8917399
H           0.9576246    -0.0557840     0.2655515
H          -0.3425872    -1.0981060     0.8567008
16
158_C4H9NO2_12-0-2-3 (15,) energy =    -363.0297345
N           1.3166734    -2.0549855     0.1807873
H           0.9041687    -2.9797373     0.2297963
C           2.6404316    -2.0992338    -0.1632061
C           3.3792081    -0.7636113    -0.3697247
O           3.1856050     0.2071586     0.6429593
C           3.7692661    -0.1589580     1.8839668
H           3.5983844     0.6748726     2.5692486
H           4.8518710    -0.3258870     1.7804388
H           3.3117566    -1.0673519     2.3009165
H           3.0381637    -0.2987134    -1.3027354
H           4.4402549    -1.0238101    -0.4797037
O           3.2342983    -3.1625331    -0.3022738
C           0.4060426    -0.9204113     0.0984763
H          -0.0865110    -0.8524046    -0.8820832
H           0.9560067    -0.0000349     0.2913556
H          -0.3690868    -1.0230144     0.8646355
16
158_C4H9NO2_12-0-2-3 (30,) energy =    -363.0292353
N           1.3588004    -2.0225312     0.2947123
H           0.9466981    -2.9500970     0.3198225
C           2.6401333    -2.0784602    -0.1985746
C           3.4042968    -0.7535484    -0.3738923
O           3.1956486     0.2193538     0.6308082
C           3.7545076    -0.1433844     1.8842494
H           3.5765008     0.6955190     2.5615115
H           4.8381579    -0.3158518     1.8011210
H           3.2825398    -1.0458172     2.2969197
H           3.1000169    -0.2844981    -1.3178917
H           4.4642350    -1.0292195    -0.4579818
O           3.1900477    -3.1441427    -0.4469127
C           0.4189849    -0.9186409     0.1140738
H          -0.0423736    -0.9203062    -0.8838992
H           0.9379659     0.0264078     0.2717072
H          -0.3762841    -1.0017319     0.8609748
16
158_C4H9NO2_12-0-2-3 (45,) energy =    -363.0274742
N           1.3995139    -1.9958547     0.3820882
H           0.9825279    -2.9235824     0.3985144
C           2.6201374    -2.0680283    -0.2609781
C           3.4502884    -0.7772289    -0.3752288
O           3.2204320     0.2073287     0.6099683
C           3.7301273    -0.1452601     1.8874209
H           3.5403519     0.7056464     2.5463484
H           4.8141077    -0.3308953     1.8438594
H           3.2313025    -1.0350129     2.2943308
H           3.2337602    -0.3013531    -1.3400402
H           4.5007934    -1.0996118    -0.3943523
O           3.0909930    -3.1306770    -0.6417935
C           0.4234128    -0.9274872     0.1457875
H          -0.0615387    -1.0145526    -0.8366968
H           0.9228679     0.0385275     0.2198552
H          -0.3487258    -0.9747360     0.9192068
16
158_C4H9NO2_12-0-2-3 (60,) energy =    -363.0241454
N           1.4365253    -1.9676831     0.4403660
H           1.0321120    -2.9032492     0.4489175
C           2.5840991    -2.0339851    -0.3427428
C           3.4990151    -0.7978964    -0.3737101
O           3.2406348     0.2028169     0.5853802
C           3.7011785    -0.1260431     1.8877527
H           3.4853566     0.7364673     2.5233036
H           4.7869041    -0.3078600     1.8883613
H           3.1884733    -1.0090556     2.2904233
H           3.4085393    -0.3186179    -1.3563849
H           4.5251308    -1.1859878    -0.2968099
O           2.9564059    -3.0735533    -0.8647448
C           0.4062816    -0.9494310     0.1819857
H          -0.1006416    -1.1031789    -0.7805948
H           0.8687227     0.0384322     0.1946106
H          -0.3395236    -0.9896097     0.9809421
16
158_C4H9NO2_12-0-2-3 (75,) energy =    -363.0192707
N           1.4645278    -1.9348199     0.4860525
H           1.0640109    -2.8739289     0.4783665
C           2.5241449    -1.9730085    -0.4322011
C           3.5559699    -0.8373703    -0.3607122
O           3.2872716     0.2033408     0.5506006
C           3.6783991    -0.0838156     1.8859283
H           3.4539993     0.8085594     2.4757861
H           4.7590263    -0.2865691     1.9445306
H           3.1276395    -0.9388847     2.2964435
H           3.6401480    -0.3817789    -1.3543290
H           4.5193868    -1.3271384    -0.1512584
O           2.7610321    -2.9529598    -1.1178306
C           0.3799687    -0.9589005     0.2562219
H          -0.1634325    -1.1514322    -0.6787765
H           0.8055097     0.0459932     0.2257710
H          -0.3242497    -1.0101653     1.0912948
16
158_C4H9NO2_12-0-2-3 (90,) energy =    -363.0131124
N           1.4917694    -1.9012159     0.5131873
H           1.1339128    -2.8590826     0.5021866
C           2.4849735    -1.8991587    -0.4989470
C           3.6095578    -0.8694477    -0.3467830
O           3.3467183     0.2030768     0.5286655
C           3.6967880    -0.0487617     1.8821155
H           3.4733023     0.8658930     2.4373902
H           4.7720300    -0.2671285     1.9769707
H           3.1190974    -0.8802892     2.3028475
H           3.8299372    -0.4466156    -1.3333570
H           4.4971054    -1.4441867    -0.0371248
O           2.5943639    -2.7987152    -1.3111503
C           0.3318710    -1.0153079     0.2626457
H          -0.1906127    -1.2606308    -0.6720384
H           0.6779037     0.0204677     0.2180071
H          -0.3679180    -1.1082900     1.0976359
16
158_C4H9NO2_12-0-2-3 (105,) energy =    -363.0170254
N           1.2633267    -1.6858295     0.4873811
H           1.3609237    -0.9691902     1.2062271
C           2.4718284    -1.7601487    -0.2140181
C           3.4215263    -0.5609702    -0.0411722
O           3.3000822     0.1203201     1.1941355
C           3.9917401    -0.5294211     2.2523886
H           3.8396794     0.0757404     3.1491605
H           5.0685386    -0.5967266     2.0399925
H           3.6055499    -1.5441432     2.4325637
H           3.1311860     0.1542499    -0.8208028
H           4.4537769    -0.8801854    -0.2380469
O           2.6941815    -2.5862974    -1.0795797
C           0.0640499    -1.3801978    -0.3108661
H          -0.8223194    -1.4738313     0.3225327
H          -0.0146577    -2.1047283    -1.1242783
H           0.0893860    -0.3672031    -0.7385884
16
158_C4H9NO2_12-0-2-3 (120,) energy =    -363.0243290
N           1.2594066    -1.5325953     0.4787589
H           1.3534642    -0.7627339     1.1379727
C           2.4349126    -1.6719168    -0.2436735
C           3.4690715    -0.5513861    -0.0383476
O           3.3636538     0.1371920     1.1948815
C           3.9728728    -0.5624255     2.2723565
H           3.8392080     0.0527923     3.1652879
H           5.0477622    -0.7082920     2.0921886
H           3.5066693    -1.5449843     2.4376915
H           3.2644969     0.1846812    -0.8251139
H           4.4781737    -0.9528038    -0.2023610
O           2.5957634    -2.4921098    -1.1318232
C          -0.0027766    -1.4406900    -0.2633257
H          -0.8440517    -1.5964558     0.4179225
H          -0.0185773    -2.2251720    -1.0221523
H          -0.1195684    -0.4657779    -0.7571890
16
158_C4H9NO2_12-0-2-3 (135,) energy =    -363.0306363
N           1.2771946    -1.3560979     0.4203342
H           1.3670420    -0.5645157     1.0510418
C           2.4223023    -1.5408332    -0.3213415
C           3.5342655    -0.5118850    -0.0585383
O           3.4329909     0.1700113     1.1793202
C           3.9579252    -0.5767888     2.2694356
H           3.8330513     0.0385273     3.1637008
H           5.0271435    -0.7890775     2.1248630
H           3.4241716    -1.5281733     2.4079797
H           3.4346646     0.2467788    -0.8436801
H           4.5107424    -0.9992697    -0.1820899
O           2.5327387    -2.3446140    -1.2345669
C          -0.0279753    -1.4510191    -0.2307399
H          -0.8044497    -1.6581558     0.5114323
H           0.0050604    -2.2744306    -0.9460459
H          -0.2835008    -0.5263194    -0.7660930
16
158_C4H9NO2_12-0-2-3 (150,) energy =    -363.0352978
N           1.2999118    -1.5775788     0.1146261
H           1.3800821    -1.3193723     1.0913216
C           2.4619902    -1.4183020    -0.5853868
C           3.6654234    -0.9539445     0.2382725
O           3.3359056    -0.8264099     1.6079899
C           4.4217015    -0.3924736     2.4037075
H           4.0606387    -0.3271581     3.4329931
H           4.7843301     0.5972028     2.0854421
H           5.2613313    -1.1028992     2.3609411
H           3.9830928     0.0111875    -0.1875445
H           4.4929206    -1.6647844     0.0897305
O           2.5744978    -1.5541144    -1.7965196
C           0.0076057    -1.3731361    -0.5245879
H          -0.3674914    -0.3557398    -0.3520158
H          -0.7299872    -2.0896082    -0.1482250
H           0.1363788    -1.5286207    -1.5968851
16
158_C4H9NO2_12-0-2-3 (165,) energy =    -363.0381018
N           1.2793748    -1.4045932     0.1181835
H           1.3418440    -1.1718687     1.1009365
C           2.4362746    -1.2893580    -0.5865043
C           3.6665629    -0.9239363     0.2459228
O           3.3345382    -0.7509324     1.6105044
C           4.4478051    -0.4150062     2.4152348
H           4.0833345    -0.3037007     3.4394167
H           4.9078669     0.5314873     2.0918167
H           5.2156764    -1.2034123     2.3899178
H           4.0864923    -0.0009325    -0.1835375
H           4.4194698    -1.7170100     0.1155165
O           2.5416611    -1.4328215    -1.7987578
C          -0.0189678    -1.4270082    -0.5304961
H          -0.5322696    -0.4612124    -0.4359611
H          -0.6559600    -2.2077418    -0.1008439
H           0.1436208    -1.6400157    -1.5881832
16
158_C4H9NO2_12-0-2-3 (180,) energy =    -363.0389568
N           1.2163084    -1.1766504     0.1034937
H           1.2840230    -0.9947248     1.0956932
C           2.3773234    -1.1662132    -0.5980381
C           3.6289893    -0.8852131     0.2346056
O           3.3072478    -0.6699934     1.5957770
C           4.4415721    -0.4180895     2.4015954
H           4.0841468    -0.2656211     3.4229797
H           4.9791999     0.4835755     2.0700289
H           5.1421149    -1.2673000     2.3881657
H           4.1309555    -0.0073875    -0.2013061
H           4.3094018    -1.7430765     0.1160864
O           2.4774784    -1.3623697    -1.8039333
C          -0.0714173    -1.4251207    -0.5138343
H          -0.7451462    -0.5694360    -0.3850128
H          -0.5499276    -2.3160943    -0.0895772
H           0.1013726    -1.5862389    -1.5791641
