31
134_C14H15NO_11-10-23-25 (-165,) energy =    -672.4954915
C           4.4962472     1.9459779    -0.5429845
H           4.9813120     2.9177347    -0.5865282
C           3.4936009     1.7024807     0.4049994
H           3.1793039     2.4858853     1.0884630
C           2.9400311     0.4365856     0.4762051
H           2.1903668     0.1759049     1.2166990
C           3.3353764    -0.5864393    -0.4010152
C           4.3068630    -0.3236075    -1.4034554
C           4.9048071     0.9552916    -1.4243605
H           5.7217872     1.1701941    -2.0935870
N           4.6897118    -1.3606115    -2.2784901
C           4.2041463    -2.6276373    -2.0278924
H           4.5837706    -3.3872534    -2.7047362
C           3.3225099    -2.9551287    -1.0522648
H           3.0125187    -3.9855047    -0.9196130
C           2.7503745    -1.9367994    -0.1944578
O           1.8806252    -2.1602469     0.6523155
C           4.8552507    -0.8292427    -6.0546939
H           4.3111619    -0.0431633    -6.5875077
H           4.9338694    -1.6778735    -6.7413599
C           4.1184523    -1.2172124    -4.7454218
H           3.5996758    -2.1785739    -4.8099026
H           3.3691419    -0.4645679    -4.4726877
C           5.2250519    -1.2242694    -3.6631740
H           5.8326010    -2.1281018    -3.8003090
C           6.1180651    -0.0522092    -4.1039299
H           7.0743506    -0.0013953    -3.5732318
H           5.5973554     0.9009918    -3.9825499
C           6.2635319    -0.3356506    -5.6100786
H           7.0136806    -1.1188581    -5.7735527
H           6.5973896     0.5477044    -6.1624999
31
134_C14H15NO_11-10-23-25 (-150,) energy =    -672.5006544
C           6.1161982    -1.3109318    -0.2757878
H           7.1610379    -1.6082681    -0.2394320
C           5.3840080    -1.1719087     0.9102556
H           5.8465040    -1.3778755     1.8710819
C           4.0723451    -0.7366395     0.8346492
H           3.4687551    -0.5699763     1.7213318
C           3.4609364    -0.4636624    -0.3991820
C           4.1816051    -0.6686225    -1.6058736
C           5.5348430    -1.0613907    -1.5113469
H           6.1516344    -1.1441833    -2.3925338
N           3.5308059    -0.4465273    -2.8335268
C           2.3284703     0.2284283    -2.8079458
H           1.9445968     0.4918966    -3.7883761
C           1.6106508     0.5041047    -1.6911560
H           0.6528629     1.0058959    -1.7684564
C           2.0889803     0.1076560    -0.3820438
O           1.4464542     0.2579424     0.6611248
C           6.0415262     0.1574263    -5.5640757
H           6.9170250     0.8032536    -5.6869192
H           5.5529524     0.0797000    -6.5448058
C           5.0511123     0.6853788    -4.5175256
H           4.4552260     1.5375451    -4.8610418
H           5.5891940     1.0057721    -3.6173563
C           4.1655144    -0.5437332    -4.1731221
H           3.3195722    -0.5704809    -4.8630706
C           5.0586303    -1.7921653    -4.4812349
H           4.5563349    -2.3858808    -5.2531949
H           5.1778371    -2.4571300    -3.6251116
C           6.3932034    -1.2455293    -5.0352707
H           6.8213243    -1.9006274    -5.8005479
H           7.1432834    -1.1572394    -4.2384572
31
134_C14H15NO_11-10-23-25 (-135,) energy =    -672.5041921
C           6.1480311    -1.2123872    -0.2966682
H           7.1962529    -1.4981386    -0.2662575
C           5.4202654    -1.0841643     0.8938511
H           5.8934748    -1.2779260     1.8520164
C           4.0947744    -0.6915240     0.8263658
H           3.4884097    -0.5554694     1.7163577
C           3.4682097    -0.4357904    -0.4036847
C           4.1955380    -0.5976112    -1.6118699
C           5.5547036    -0.9733286    -1.5281494
H           6.1603574    -1.0655100    -2.4172475
N           3.5477797    -0.3709472    -2.8379604
C           2.2712220     0.1446499    -2.8152642
H           1.8598171     0.3622588    -3.7955341
C           1.5316724     0.3479395    -1.6964782
H           0.5228766     0.7370081    -1.7745874
C           2.0594139     0.0371348    -0.3835680
O           1.4195634     0.1650364     0.6644475
C           6.1272878     0.1288911    -5.5345822
H           7.0687094     0.6772383    -5.6424989
H           5.6152940     0.1677389    -6.5056091
C           5.2207495     0.7060812    -4.4372904
H           4.7135801     1.6323987    -4.7266708
H           5.8039717     0.9233530    -3.5359295
C           4.2118570    -0.4378636    -4.1597680
H           3.3918389    -0.3358377    -4.8735318
C           4.9638507    -1.7654879    -4.5104434
H           4.3797728    -2.3136081    -5.2574589
H           5.0602704    -2.4310054    -3.6506542
C           6.3283594    -1.3370553    -5.1010109
H           6.6474836    -1.9855149    -5.9229899
H           7.1144268    -1.3877224    -4.3365324
31
134_C14H15NO_11-10-23-25 (-120,) energy =    -672.5053634
C           6.1506489    -1.1241490    -0.2719125
H           7.1999420    -1.4057122    -0.2395190
C           5.4172423    -1.0044218     0.9163876
H           5.8915204    -1.1906877     1.8754977
C           4.0818620    -0.6472796     0.8451024
H           3.4655739    -0.5413482     1.7323628
C           3.4538991    -0.4033890    -0.3867036
C           4.1969620    -0.5212142    -1.5897759
C           5.5584641    -0.8889003    -1.5043762
H           6.1611950    -0.9940065    -2.3947383
N           3.5602220    -0.2773797    -2.8167967
C           2.2263341     0.0588170    -2.8112119
H           1.8024266     0.2255796    -3.7959922
C           1.4606097     0.1856028    -1.6983068
H           0.4139435     0.4535016    -1.7867927
C           2.0153564    -0.0297798    -0.3773719
O           1.3679670     0.0796225     0.6682405
C           6.1740682     0.1072616    -5.5066626
H           7.1612273     0.5689626    -5.6111906
H           5.6528025     0.2367056    -6.4647714
C           5.3428214     0.7239383    -4.3701804
H           4.9103726     1.6973587    -4.6235353
H           5.9581479     0.8674437    -3.4771732
C           4.2420744    -0.3381907    -4.1268514
H           3.4469513    -0.1308208    -4.8464182
C           4.8638489    -1.7185319    -4.5213767
H           4.2125807    -2.2123406    -5.2499948
H           4.9390214    -2.3927034    -3.6650785
C           6.2444054    -1.3904324    -5.1420191
H           6.4783837    -2.0253105    -6.0023670
H           7.0422532    -1.5513889    -4.4056929
31
134_C14H15NO_11-10-23-25 (-105,) energy =    -672.5040046
C           6.1552644    -1.0454765    -0.2484599
H           7.2050432    -1.3242200    -0.2085211
C           5.4114845    -0.9360153     0.9343112
H           5.8805265    -1.1168834     1.8970236
C           4.0680338    -0.6124881     0.8518967
H           3.4383278    -0.5382200     1.7329511
C           3.4467344    -0.3772583    -0.3848652
C           4.2087701    -0.4489392    -1.5794367
C           5.5708912    -0.8106003    -1.4849586
H           6.1756831    -0.9278942    -2.3726186
N           3.5844709    -0.1816278    -2.8088376
C           2.2171884    -0.0239846    -2.8269772
H           1.7940131     0.0963129    -3.8188849
C           1.4265701     0.0255962    -1.7255919
H           0.3580948     0.1760324    -1.8297016
C           1.9859787    -0.1025649    -0.3946614
O           1.3223120    -0.0178588     0.6428019
C           6.2089221     0.0680997    -5.5142028
H           7.2308615     0.4441561    -5.6269284
H           5.6828524     0.2733419    -6.4562805
C           5.4575211     0.7238010    -4.3424424
H           5.0985218     1.7331499    -4.5680096
H           6.1032446     0.8036656    -3.4648410
C           4.2772302    -0.2510424    -4.1120076
H           3.5076562     0.0541569    -4.8255476
C           4.7619468    -1.6692901    -4.5563229
H           4.0529816    -2.0892559    -5.2770496
H           4.8031125    -2.3636405    -3.7127798
C           6.1538137    -1.4417252    -5.1976147
H           6.3183589    -2.0656752    -6.0817620
H           6.9456724    -1.6945001    -4.4809706
31
134_C14H15NO_11-10-23-25 (-90,) energy =    -672.5003103
C           6.1594468    -0.9168505    -0.1598828
H           7.2112591    -1.1833977    -0.0966772
C           5.3905711    -0.8078191     1.0063366
H           5.8430339    -0.9681743     1.9805511
C           4.0400416    -0.5254922     0.8914051
H           3.3874284    -0.4722506     1.7572017
C           3.4403419    -0.3185164    -0.3607577
C           4.2330455    -0.3598025    -1.5369905
C           5.5966618    -0.7029659    -1.4105889
H           6.2164582    -0.8387373    -2.2846408
N           3.6287989    -0.0929256    -2.7790677
C           2.2510197    -0.0999046    -2.8364675
H           1.8449891    -0.0355870    -3.8409154
C           1.4298005    -0.1107962    -1.7574720
H           0.3546700    -0.0728641    -1.8908525
C           1.9655808    -0.1401977    -0.4101825
O           1.2724728    -0.0665143     0.6082695
C           6.1642642     0.0969455    -5.5916568
H           7.2043018     0.3855772    -5.7738626
H           5.5785702     0.4352453    -6.4568157
C           5.5917722     0.7138400    -4.3023728
H           5.3219762     1.7694238    -4.4088964
H           6.3201396     0.6507605    -3.4927733
C           4.3392016    -0.1615783    -4.0735384
H           3.6064222     0.2515356    -4.7742717
C           4.6704536    -1.5927952    -4.5936418
H           3.8499956    -1.9657690    -5.2145945
H           4.7871088    -2.2976587    -3.7647649
C           5.9891503    -1.4265621    -5.3958612
H           5.9803669    -1.9721088    -6.3446246
H           6.8314988    -1.8191674    -4.8129972
31
134_C14H15NO_11-10-23-25 (-75,) energy =    -672.4956008
C           6.1295322    -0.3373862     0.2274699
H           7.1859818    -0.2102498     0.4493975
C           5.2368205    -0.7038450     1.2430243
H           5.5930412    -0.8796256     2.2538723
C           3.8915364    -0.8079327     0.9379867
H           3.1474760    -1.0552590     1.6886160
C           3.4153364    -0.5851891    -0.3642382
C           4.3254608    -0.2617703    -1.4064169
C           5.6879925    -0.1126817    -1.0685791
H           6.4044341     0.2195512    -1.8010891
N           3.8309695    -0.0407026    -2.7082233
C           2.4629189    -0.0570674    -2.8891083
H           2.1491489     0.1536398    -3.9068543
C           1.5421022    -0.3119337    -1.9282317
H           0.4845943    -0.2803036    -2.1649399
C           1.9472570    -0.6572459    -0.5811250
O           1.1582212    -0.9629050     0.3175882
C           6.2906773    -0.1746727    -5.6308644
H           7.3574216    -0.2344901    -5.8661128
H           5.8501848     0.5572073    -6.3189141
C           6.0418859     0.2564202    -4.1738424
H           6.2147323     1.3215399    -3.9895136
H           6.7098109    -0.3242901    -3.5333547
C           4.5759667    -0.1741036    -3.9916481
H           4.0094978     0.4657863    -4.6799481
C           4.5684399    -1.6077100    -4.5711027
H           3.5629726    -1.9238414    -4.8654500
H           4.9123897    -2.3044893    -3.7975645
C           5.5666867    -1.5475447    -5.7596150
H           5.0561867    -1.6360388    -6.7235928
H           6.2819187    -2.3742684    -5.7054123
31
134_C14H15NO_11-10-23-25 (-60,) energy =    -672.4948891
C           6.1127087    -0.0734101     0.2474428
H           7.1403359     0.1908775     0.4833616
C           5.2655470    -0.5639312     1.2502151
H           5.6326896    -0.7037935     2.2627708
C           3.9458627    -0.8302505     0.9324938
H           3.2313574    -1.1702039     1.6755922
C           3.4562255    -0.6548831    -0.3723026
C           4.3300199    -0.2192908    -1.4043389
C           5.6578737     0.1066045    -1.0507630
H           6.3293491     0.5403283    -1.7738400
N           3.8222488    -0.0540496    -2.7085125
C           2.4597472    -0.1693072    -2.8895971
H           2.1293595     0.0477730    -3.9007932
C           1.5651546    -0.5212063    -1.9345159
H           0.5071126    -0.5673906    -2.1664452
C           2.0044290    -0.8751955    -0.5993862
O           1.2496623    -1.2890486     0.2852332
C           6.3888608    -0.3258315    -5.5344357
H           7.4414236    -0.5770540    -5.6959927
H           6.1623186     0.5343001    -6.1762668
C           6.1015130     0.0322735    -4.0656644
H           6.4524269     1.0344685    -3.8010893
H           6.5937889    -0.6947139    -3.4124619
C           4.5739920    -0.1250981    -3.9976330
H           4.1524942     0.6860771    -4.6078205
C           4.3430371    -1.4651063    -4.7452425
H           3.3274168    -1.5495304    -5.1417937
H           4.4767363    -2.2860185    -4.0307521
C           5.4291059    -1.5052530    -5.8521273
H           4.9957042    -1.4054281    -6.8521065
H           5.9609075    -2.4617305    -5.8342000
31
134_C14H15NO_11-10-23-25 (-45,) energy =    -672.4943172
C           6.0816493     0.4341734     0.2818585
H           7.0285921     0.9274658     0.4854511
C           5.3158867    -0.0819398     1.3346791
H           5.6732605    -0.0193002     2.3583476
C           4.0771853    -0.6291674     1.0479191
H           3.4119105    -0.9888363     1.8266623
C           3.6014046    -0.7124090    -0.2700842
C           4.4182124    -0.2778032    -1.3479552
C           5.6436763     0.3472580    -1.0328018
H           6.2449456     0.8032316    -1.8037418
N           3.9452639    -0.4433481    -2.6683300
C           2.5789891    -0.5904848    -2.8177561
H           2.2164223    -0.4770608    -3.8306200
C           1.7207314    -0.9306843    -1.8246984
H           0.6672707    -1.0703427    -2.0394266
C           2.1955259    -1.1490751    -0.4725786
O           1.4958140    -1.5888495     0.4436374
C           6.6411146    -1.0426902    -5.1973384
H           6.8269637    -2.1133252    -5.0535649
H           7.5577373    -0.6122098    -5.6124648
C           6.2459902    -0.3878996    -3.8467952
H           6.8129694     0.5339443    -3.6908764
H           6.4781521    -1.0551137    -3.0150365
C           4.7061032    -0.0860744    -3.9038021
H           4.5464845     0.9785908    -4.1210714
C           4.2542233    -0.9447978    -5.1167744
H           3.3092074    -0.6167253    -5.5611705
H           4.1249340    -1.9818299    -4.7824956
C           5.4191321    -0.8475804    -6.1031324
H           5.4354190     0.1470244    -6.5685500
H           5.3506256    -1.5842793    -6.9098595
31
134_C14H15NO_11-10-23-25 (-30,) energy =    -672.4992761
C           6.0286215     0.5954967     0.2751812
H           6.9589039     1.1280882     0.4548610
C           5.2707748     0.1205299     1.3533239
H           5.6165557     0.2609685     2.3732855
C           4.0591361    -0.4980109     1.0955648
H           3.4075854    -0.8429587     1.8923399
C           3.5977274    -0.6825077    -0.2170386
C           4.4003303    -0.2695580    -1.3117856
C           5.6049173     0.4105235    -1.0339327
H           6.2034193     0.8224136    -1.8330058
N           3.9519633    -0.5151465    -2.6261467
C           2.6105827    -0.7978183    -2.7853073
H           2.2546457    -0.7811848    -3.8057890
C           1.7689314    -1.1498983    -1.7808040
H           0.7375118    -1.4009927    -2.0012269
C           2.2267761    -1.2228360    -0.4077115
O           1.5392924    -1.6369344     0.5298347
C           6.5124688    -1.2255792    -5.1659322
H           6.4142341    -2.3153500    -5.0906059
H           7.5240829    -1.0168204    -5.5280309
C           6.2321045    -0.5655203    -3.7952583
H           6.9038174     0.2862510    -3.6516895
H           6.4089641    -1.2565995    -2.9683185
C           4.7352683    -0.0743115    -3.8145463
H           4.7065963     1.0223949    -3.8592727
C           4.1970491    -0.6657393    -5.1431703
H           3.3472657    -0.1081849    -5.5513250
H           3.8721517    -1.6994457    -4.9729809
C           5.4102082    -0.6744573    -6.0773180
H           5.6502732     0.3467492    -6.4024964
H           5.2410192    -1.2748697    -6.9769423
31
134_C14H15NO_11-10-23-25 (-15,) energy =    -672.5024932
C           6.0024224     0.6837510     0.2535730
H           6.9346218     1.2177947     0.4182555
C           5.2341565     0.2578876     1.3453148
H           5.5712947     0.4446517     2.3607467
C           4.0296992    -0.3821408     1.1067827
H           3.3787991    -0.7045866     1.9134510
C           3.5790873    -0.6275958    -0.1995395
C           4.3817445    -0.2429727    -1.3038486
C           5.5886151     0.4424267    -1.0491507
H           6.1992930     0.8065846    -1.8628743
N           3.9434655    -0.5240497    -2.6109004
C           2.6387587    -0.9299901    -2.7742718
H           2.2980297    -0.9920415    -3.7975707
C           1.8052688    -1.2817706    -1.7613118
H           0.7993519    -1.6199028    -1.9831398
C           2.2328237    -1.2299566    -0.3784349
O           1.5432845    -1.6065874     0.5739291
C           6.4361484    -1.2814402    -5.2381691
H           6.2526244    -2.3614593    -5.2892612
H           7.4631136    -1.1128904    -5.5769604
C           6.1974840    -0.7619539    -3.7989897
H           6.9540550    -0.0151720    -3.5428332
H           6.2714380    -1.5585394    -3.0537176
C           4.7612376    -0.1200351    -3.7846033
H           4.8523670     0.9737861    -3.7622064
C           4.1713107    -0.5373546    -5.1514721
H           3.3618830     0.1189048    -5.4885650
H           3.7786747    -1.5595517    -5.0940128
C           5.3876029    -0.5442224    -6.0836361
H           5.7130239     0.4827510    -6.2967098
H           5.1780367    -1.0286904    -7.0425840
31
134_C14H15NO_11-10-23-25 (0,) energy =    -672.5050371
C           6.0290832     0.8743727     0.2096518
H           6.9877031     1.3647052     0.3576385
C           5.2043268     0.5977058     1.3086976
H           5.5219644     0.8614962     2.3132554
C           3.9754730    -0.0017904     1.0907273
H           3.2882221    -0.2193152     1.9023322
C           3.5503396    -0.3470642    -0.2017012
C           4.3999091    -0.0984262    -1.3091087
C           5.6405488     0.5352642    -1.0786679
H           6.3000051     0.7794209    -1.9006550
N           3.9789170    -0.4622044    -2.5995741
C           2.6871888    -0.8998078    -2.7660288
H           2.3881258    -1.0746196    -3.7896695
C           1.8173552    -1.1391188    -1.7503509
H           0.8188086    -1.5006870    -1.9683510
C           2.1925878    -0.9277507    -0.3672776
O           1.4571563    -1.1739933     0.5935465
C           6.6428050    -1.0218812    -5.2519468
H           6.9373713    -2.0031615    -5.6366017
H           7.5330626    -0.3865158    -5.3012254
C           6.1108466    -1.1370782    -3.8009571
H           6.8650236    -0.8862391    -3.0528343
H           5.7785071    -2.1598001    -3.5860029
C           4.8599207    -0.2202476    -3.7625919
H           5.1700330     0.8325023    -3.7264878
C           4.2506669    -0.4846447    -5.1514001
H           3.4594964     0.2216646    -5.4243856
H           3.8315271    -1.4973226    -5.1905937
C           5.4767045    -0.4066577    -6.0777874
H           5.6914909     0.6397823    -6.3238187
H           5.3041419    -0.9268486    -7.0245790
31
134_C14H15NO_11-10-23-25 (15,) energy =    -672.5062776
C           5.9050548     0.8460433     0.2966274
H           6.8671132     1.3345802     0.4271647
C           5.0827104     0.6062220     1.4062946
H           5.4020835     0.9051248     2.4004157
C           3.8604139    -0.0148802     1.2138901
H           3.1833779    -0.2216218     2.0367906
C           3.4332674    -0.4067618    -0.0645669
C           4.2680371    -0.1682806    -1.1854088
C           5.5129381     0.4664533    -0.9790803
H           6.1800307     0.6665241    -1.8074363
N           3.8359667    -0.5568733    -2.4636527
C           2.5953680    -1.1289219    -2.5963901
H           2.3098068    -1.3780109    -3.6087442
C           1.7500433    -1.3841572    -1.5639501
H           0.7848029    -1.8391949    -1.7552315
C           2.1026239    -1.0545257    -0.1981181
O           1.3745758    -1.2748521     0.7746716
C           6.3933344    -1.1521388    -5.2138642
H           6.5787171    -2.1244829    -5.6807043
H           7.3412559    -0.6054294    -5.2435319
C           5.8839593    -1.3292277    -3.7593188
H           6.6623164    -1.1686156    -3.0092085
H           5.4915342    -2.3408432    -3.6003247
C           4.7050380    -0.3339734    -3.6362122
H           5.0968839     0.6859173    -3.5440766
C           4.0526333    -0.4296701    -5.0262521
H           3.3146795     0.3570376    -5.2140582
H           3.5571872    -1.3989414    -5.1569130
C           5.2750176    -0.3652199    -5.9595906
H           5.5757361     0.6787930    -6.1063864
H           5.0558593    -0.7755179    -6.9497444
31
134_C14H15NO_11-10-23-25 (30,) energy =    -672.5063683
C           5.8684126     0.9219199     0.3168560
H           6.8277102     1.4160406     0.4467353
C           5.0283029     0.7176236     1.4203111
H           5.3274027     1.0567369     2.4077872
C           3.8200592     0.0685966     1.2319764
H           3.1368986    -0.1265756     2.0526402
C           3.4197184    -0.3761413    -0.0378727
C           4.2609024    -0.1507014    -1.1569875
C           5.5004598     0.4948411    -0.9509774
H           6.1900931     0.6545834    -1.7701523
N           3.8447073    -0.5768253    -2.4283980
C           2.6636018    -1.2667223    -2.5411994
H           2.4187826    -1.5947384    -3.5423245
C           1.8230420    -1.5301854    -1.5073928
H           0.9011787    -2.0727330    -1.6837378
C           2.1213948    -1.0884883    -0.1599128
O           1.3815254    -1.2842730     0.8091512
C           6.2664388    -1.2177301    -5.2888419
H           6.3249941    -2.1672108    -5.8300376
H           7.2693550    -0.7800767    -5.3168683
C           5.7843419    -1.4455808    -3.8313108
H           6.5916542    -1.3930234    -3.0948340
H           5.3145513    -2.4304601    -3.7213816
C           4.7053767    -0.3628971    -3.6071923
H           5.1928976     0.6040954    -3.4529561
C           4.0175036    -0.2654669    -4.9809695
H           3.3742598     0.6153420    -5.0740752
H           3.4062909    -1.1517988    -5.1857005
C           5.2241276    -0.2572759    -5.9375164
H           5.6346268     0.7570483    -6.0072300
H           4.9467013    -0.5580374    -6.9521253
31
134_C14H15NO_11-10-23-25 (45,) energy =    -672.5060608
C           5.8125971     1.0917753     0.4277461
H           6.7370261     1.6447134     0.5725352
C           4.9418705     0.8840741     1.5065971
H           5.1800824     1.2818365     2.4887110
C           3.7850023     0.1524356     1.3015147
H           3.0840635    -0.0545600     2.1040720
C           3.4638451    -0.3685855     0.0380047
C           4.3305400    -0.1327196    -1.0602482
C           5.5215088     0.5925775    -0.8334958
H           6.2396132     0.7549967    -1.6276114
N           3.9842583    -0.6355373    -2.3247969
C           2.8749746    -1.4364022    -2.4385905
H           2.7058347    -1.8407190    -3.4288154
C           2.0202313    -1.7209429    -1.4230024
H           1.1590207    -2.3557345    -1.5979548
C           2.2255828    -1.1794854    -0.0941090
O           1.4613418    -1.3782776     0.8551200
C           6.1233046    -1.3366231    -5.3816794
H           5.9196800    -2.2367674    -5.9706877
H           7.1856612    -1.1100491    -5.5149639
C           5.7624915    -1.5736253    -3.8885965
H           6.6382003    -1.6185921    -3.2334321
H           5.2222811    -2.5188914    -3.7610494
C           4.8243005    -0.4025328    -3.5143425
H           5.4270519     0.4790171    -3.2956227
C           4.0884151    -0.0788889    -4.8295891
H           3.5842859     0.8922460    -4.7982533
H           3.3333715    -0.8373923    -5.0659271
C           5.2324527    -0.1517849    -5.8549099
H           5.8052911     0.7835350    -5.8334657
H           4.8692574    -0.2790236    -6.8791748
31
134_C14H15NO_11-10-23-25 (60,) energy =    -672.5059472
C           5.6060260     1.2677172     0.4580942
H           6.4594654     1.9222845     0.6145917
C           4.7176850     1.0073827     1.5107452
H           4.8744668     1.4579221     2.4864060
C           3.6426780     0.1664039     1.2839557
H           2.9246029    -0.0736294     2.0617386
C           3.4265535    -0.4234910     0.0281316
C           4.3232287    -0.1561284    -1.0396960
C           5.4193674     0.7008163    -0.7939756
H           6.1393434     0.9328736    -1.5686292
N           4.0892186    -0.7520071    -2.2901223
C           3.0108210    -1.5892837    -2.4368545
H           2.9016740    -2.0162872    -3.4270539
C           2.1219552    -1.8880227    -1.4560539
H           1.2948342    -2.5595606    -1.6562875
C           2.2519913    -1.3201686    -0.1288975
O           1.4689842    -1.5525946     0.7971770
C           5.9401398    -1.4824784    -5.5144394
H           5.4972857    -2.2515406    -6.1560117
H           7.0128479    -1.4755652    -5.7306300
C           5.6489554    -1.7969436    -4.0193960
H           6.5513604    -2.0308789    -3.4460464
H           4.9866810    -2.6638519    -3.9272321
C           4.9482609    -0.5286790    -3.4687508
H           5.7226923     0.1736087    -3.1697734
C           4.2449628     0.0861979    -4.6951652
H           3.9552982     1.1287453    -4.5285881
H           3.3338258    -0.4741602    -4.9389969
C           5.2970983    -0.0962707    -5.7994810
H           6.0538114     0.6943716    -5.7199014
H           4.8707310    -0.0282719    -6.8050071
31
134_C14H15NO_11-10-23-25 (75,) energy =    -672.5060247
C           5.4864657     1.5298200     0.3433688
H           6.2979407     2.2476280     0.4302648
C           4.6393557     1.2912085     1.4345624
H           4.7940503     1.8133844     2.3741918
C           3.5971663     0.3923747     1.2881531
H           2.9001497     0.1819175     2.0932177
C           3.3841920    -0.2898910     0.0796739
C           4.2591983    -0.0698554    -1.0154189
C           5.3038369     0.8689387    -0.8626252
H           5.9678487     1.1090326    -1.6836471
N           4.0504126    -0.7783298    -2.2098544
C           2.9427996    -1.5820851    -2.3192444
H           2.8127887    -2.0473480    -3.2885654
C           2.0551518    -1.8148303    -1.3189428
H           1.2085943    -2.4714898    -1.4844266
C           2.2196403    -1.2083659    -0.0126528
O           1.4616144    -1.4124159     0.9404513
C           6.0235225    -1.3822895    -5.3741146
H           6.0551894    -2.1204537    -6.1811136
H           7.0628386    -1.1181066    -5.1440208
C           5.3367706    -1.9270681    -4.1096495
H           5.9803842    -2.5705936    -3.5014629
H           4.4541255    -2.5127939    -4.3907405
C           4.9399170    -0.6298598    -3.3769810
H           5.8718516    -0.2060335    -3.0039454
C           4.3894635     0.2745918    -4.5029124
H           4.4549845     1.3361525    -4.2441825
H           3.3270858     0.0490477    -4.6529087
C           5.2188962    -0.1052553    -5.7596173
H           5.8905835     0.7044020    -6.0615828
H           4.5590436    -0.2971908    -6.6116954
31
134_C14H15NO_11-10-23-25 (90,) energy =    -672.5063380
C           5.4129680     1.6061735     0.2068315
H           6.2014864     2.3528692     0.2511177
C           4.5622228     1.4170604     1.3048344
H           4.6905249     2.0089047     2.2063993
C           3.5520263     0.4746876     1.2157158
H           2.8566572     0.2966959     2.0300065
C           3.3733606    -0.2975502     0.0571088
C           4.2486219    -0.1214863    -1.0446282
C           5.2627308     0.8576262    -0.9517271
H           5.9280062     1.0539526    -1.7830552
N           4.0803419    -0.9147452    -2.1909238
C           3.0191407    -1.7834169    -2.2446667
H           2.9253972    -2.3348878    -3.1704656
C           2.1353219    -1.9840882    -1.2331329
H           1.3292962    -2.6993196    -1.3517180
C           2.2490032    -1.2684089     0.0218070
O           1.4857244    -1.4304503     0.9788609
C           5.9653459    -1.3530098    -5.4386678
H           5.9213502    -1.9733501    -6.3387716
H           7.0238156    -1.2584567    -5.1675912
C           5.1839260    -1.9703928    -4.2657879
H           5.7117642    -2.7871609    -3.7632041
H           4.2316022    -2.3640661    -4.6388726
C           4.9701650    -0.7466418    -3.3554725
H           5.9565134    -0.5063018    -2.9496965
C           4.5408237     0.3597897    -4.3461750
H           4.7223794     1.3648110    -3.9535607
H           3.4608376     0.2742232    -4.5154669
C           5.3344759     0.0553595    -5.6461458
H           6.1063795     0.8074794    -5.8368912
H           4.6676201     0.0652404    -6.5141447
31
134_C14H15NO_11-10-23-25 (105,) energy =    -672.5062763
C           5.3546112     1.6531172     0.1327446
H           6.1374065     2.4062366     0.1689469
C           4.4816443     1.4946282     1.2180536
H           4.5812257     2.1229118     2.0983757
C           3.4943854     0.5264307     1.1491750
H           2.7940163     0.3588554     1.9613888
C           3.3529118    -0.2935150     0.0186264
C           4.2333933    -0.1292159    -1.0804274
C           5.2374116     0.8610840    -1.0004930
H           5.9292598     1.0196612    -1.8174488
N           4.0925972    -0.9543663    -2.2075742
C           3.1224303    -1.9251244    -2.1991045
H           3.0845636    -2.5444583    -3.0843573
C           2.2493022    -2.1330824    -1.1792881
H           1.5115431    -2.9241087    -1.2522112
C           2.2805495    -1.3221747     0.0207004
O           1.5032980    -1.4641472     0.9697315
C           5.9015756    -1.3053313    -5.5108157
H           5.7830936    -1.8362667    -6.4599714