22
448_C9H9N3O_4-5-18-16 (-165,) energy =    -587.8053428
C           5.4693689     1.1421888    -0.4976709
H           6.2524855     1.7878771    -0.8825978
C           4.9671692     1.3072040     0.7867581
H           5.3417543     2.0911522     1.4414664
N           4.0110464     0.5273018     1.2976623
C           3.4984166    -0.4507609     0.5636901
C           3.9270826    -0.6939653    -0.7696131
O           3.3284464    -1.6963629    -1.4761436
C           3.7014456    -1.8867235    -2.8350501
H           3.0764865    -2.7027804    -3.2008480
H           4.7579693    -2.1688479    -2.9261015
H           3.5104945    -0.9856897    -3.4311502
C           4.9344137     0.1216862    -1.2847991
H           5.2945278    -0.0278094    -2.2958383
C           0.9621182    -2.7295144     1.7405721
H           0.3438301    -3.6152815     1.7680020
C           1.9393426    -2.4312583     0.8229712
H           2.3085557    -2.9745277    -0.0280194
N           2.4703351    -1.2135310     1.1830971
N           1.8577315    -0.7101482     2.2964351
C           0.9572034    -1.6228602     2.6252199
H           0.3261055    -1.4529139     3.4884847
22
448_C9H9N3O_4-5-18-16 (-150,) energy =    -587.8062325
C           5.5125543     1.1125124    -0.4760405
H           6.3084148     1.7479056    -0.8521204
C           5.0218940     1.2675710     0.8146906
H           5.4191077     2.0314764     1.4794240
N           4.0526814     0.4981428     1.3203965
C           3.5170122    -0.4495529     0.5640824
C           3.9302973    -0.6808543    -0.7738028
O           3.2961046    -1.6588834    -1.4806834
C           3.6275063    -1.8236785    -2.8536958
H           2.9698803    -2.6117564    -3.2233929
H           4.6728830    -2.1326402    -2.9810303
H           3.4472989    -0.9017818    -3.4206260
C           4.9540662     0.1188035    -1.2819010
H           5.3057281    -0.0183602    -2.2978369
C           1.0648856    -2.7929590     1.7684870
H           0.5352456    -3.7302098     1.8609385
C           2.1101455    -2.5106991     0.9222781
H           2.6263410    -3.1135088     0.1947293
N           2.4701646    -1.2060085     1.1547607
N           1.6920137    -0.6297408     2.1164441
C           0.8495064    -1.5859645     2.4790639
H           0.1058733    -1.3743287     3.2369953
22
448_C9H9N3O_4-5-18-16 (-135,) energy =    -587.8063097
C           5.5506384     1.0765350    -0.4687157
H           6.3630457     1.6966932    -0.8350466
C           5.0768105     1.2171971     0.8305983
H           5.5060520     1.9510466     1.5089051
N           4.0874383     0.4661301     1.3280829
C           3.5162424    -0.4377942     0.5456051
C           3.9153016    -0.6589468    -0.7958906
O           3.2470968    -1.6110849    -1.5031784
C           3.5683242    -1.7775472    -2.8783580
H           2.8893985    -2.5467558    -3.2490926
H           4.6052017    -2.1120400    -3.0116820
H           3.4094832    -0.8485958    -3.4403436
C           4.9600082     0.1191265    -1.2959169
H           5.3027292    -0.0052126    -2.3166802
C           1.1482369    -2.8164319     1.8265340
H           0.6947732    -3.7813821     2.0017130
C           2.2348429    -2.5399757     1.0305647
H           2.8607006    -3.1722760     0.4214282
N           2.4509538    -1.1889456     1.1094612
N           1.5552867    -0.5757969     1.9332927
C           0.7691338    -1.5573944     2.3547953
H          -0.0522738    -1.3272746     3.0214560
22
448_C9H9N3O_4-5-18-16 (-120,) energy =    -587.8054426
C           5.5967034     1.0268919    -0.4991884
H           6.4205621     1.6358009    -0.8591655
C           5.1483032     1.1433843     0.8123847
H           5.6109554     1.8434508     1.5041079
N           4.1445185     0.4062943     1.3037401
C           3.5365891    -0.4520919     0.4985984
C           3.9128672    -0.6532925    -0.8502037
O           3.2125407    -1.5765465    -1.5600122
C           3.5205128    -1.7395421    -2.9385862
H           2.8221937    -2.4906761    -3.3101425
H           4.5489541    -2.0957182    -3.0815807
H           3.3784234    -0.8032357    -3.4929531
C           4.9715955     0.1101353    -1.3463874
H           5.2992594     0.0048472    -2.3742939
C           1.2329066    -2.8315211     1.8817733
H           0.8427578    -3.8013986     2.1547388
C           2.3671122    -2.5656779     1.1490246
H           3.0988825    -3.2128912     0.6896473
N           2.4612677    -1.2051788     1.0461713
N           1.4502094    -0.5695896     1.6990870
C           0.7058186    -1.5535671     2.1898747
H          -0.1904469    -1.3118671     2.7469733
22
448_C9H9N3O_4-5-18-16 (-105,) energy =    -587.8043089
C           5.6168947     1.0094293    -0.4926359
H           6.4377850     1.6198284    -0.8572961
C           5.2159478     1.0844836     0.8381170
H           5.7139118     1.7514624     1.5377999
N           4.2136592     0.3481398     1.3341647
C           3.5701121    -0.4723432     0.5173889
C           3.8971270    -0.6312783    -0.8478482
O           3.1617218    -1.5202161    -1.5602287
C           3.4338534    -1.6584068    -2.9490458
H           2.7182066    -2.3943559    -3.3177508
H           4.4544432    -2.0227168    -3.1244508
H           3.2884060    -0.7097992    -3.4812576
C           4.9512350     0.1357293    -1.3529342
H           5.2452561     0.0636438    -2.3938138
C           1.2787931    -2.8269892     1.9712177
H           0.9279444    -3.7779672     2.3452615
C           2.4947630    -2.5590048     1.3806709
H           3.3451453    -3.1870876     1.1584569
N           2.4954881    -1.2314435     1.0666678
N           1.3433640    -0.6119140     1.4368360
C           0.6092581    -1.5807672     1.9759280
H          -0.3806095    -1.3498648     2.3486474
22
448_C9H9N3O_4-5-18-16 (-90,) energy =    -587.8042749
C           5.6653135     0.9788872    -0.5034823
H           6.4790831     1.5848797    -0.8909509
C           5.3430323     1.0118117     0.8500019
H           5.8959246     1.6396487     1.5444973
N           4.3423577     0.2896976     1.3719417
C           3.6432302    -0.4927304     0.5640074
C           3.8890296    -0.6075064    -0.8224647
O           3.1007631    -1.4589017    -1.5184571
C           3.2985548    -1.5653078    -2.9224018
H           2.5523658    -2.2801057    -3.2714020
H           4.3024780    -1.9409891    -3.1595691
H           3.1415634    -0.6010794    -3.4221271
C           4.9306162     0.1563777    -1.3581147
H           5.1669792     0.1158233    -2.4152961
C           1.3165302    -2.8171180     2.0126763
H           0.9773483    -3.7303994     2.4797987
C           2.6115058    -2.4801414     1.6793048
H           3.5491068    -3.0044257     1.7950595
N           2.5641473    -1.2311884     1.1358263
N           1.2980173    -0.7413814     1.0717679
C           0.5488822    -1.6996491     1.6111815
H          -0.5203807    -1.5519817     1.6950923
22
448_C9H9N3O_4-5-18-16 (-75,) energy =    -587.8054153
C           5.6895680     0.9376812    -0.4952508
H           6.5083191     1.5396141    -0.8784049
C           5.3979811     0.9247834     0.8648149
H           5.9819738     1.5096714     1.5712406
N           4.3846851     0.2142910     1.3791426
C           3.6510064    -0.5233554     0.5591243
C           3.8721625    -0.6004688    -0.8353633
O           3.0679581    -1.4241814    -1.5445626
C           3.2458914    -1.4923994    -2.9530814
H           2.4893323    -2.1914773    -3.3114508
H           4.2435627    -1.8685722    -3.2151258
H           3.0892728    -0.5134066    -3.4233853
C           4.9177912     0.1631861    -1.3626756
H           5.1350177     0.1521513    -2.4246296
C           1.3482379    -2.7857296     2.1299257
H           1.0252151    -3.6409141     2.7057755
C           2.6439167    -2.3834014     1.8868141
H           3.5985560    -2.7862631     2.1921837
N           2.5673099    -1.2483916     1.1339197
N           1.2843621    -0.9016228     0.8485101
C           0.5514673    -1.8262247     1.4623268
H          -0.5282477    -1.7690089     1.4070359
22
448_C9H9N3O_4-5-18-16 (-60,) energy =    -587.8068732
C           5.7020705     0.9024671    -0.4967479
H           6.5263841     1.5049740    -0.8665222
C           5.4268087     0.8380631     0.8644028
H           6.0306839     1.3798840     1.5882920
N           4.4021973     0.1307610     1.3601443
C           3.6425491    -0.5603224     0.5220078
C           3.8538609    -0.5943004    -0.8774365
O           3.0443335    -1.3887290    -1.6130318
C           3.2254521    -1.4170126    -3.0219826
H           2.4667287    -2.1023217    -3.4017857
H           4.2222052    -1.7894328    -3.2932246
H           3.0737096    -0.4243462    -3.4646287
C           4.9059705     0.1744649    -1.3830191
H           5.1142595     0.1970878    -2.4465225
C           1.3670427    -2.7195890     2.2583690
H           1.0546941    -3.4946230     2.9431658
C           2.6500775    -2.2711517     2.0348693
H           3.6028690    -2.5476978     2.4612229
N           2.5615005    -1.2826679     1.0968409
N           1.2828249    -1.0725206     0.6845853
C           0.5642980    -1.9364070     1.3944808
H          -0.5101886    -1.9642672     1.2648119
22
448_C9H9N3O_4-5-18-16 (-45,) energy =    -587.8081731
C           5.7066933     0.8699155    -0.4885970
H           6.5364358     1.4756926    -0.8400521
C           5.4402174     0.7503633     0.8696764
H           6.0576156     1.2491603     1.6128833
N           4.4072884     0.0393196     1.3411476
C           3.6260694    -0.6032812     0.4830164
C           3.8339500    -0.5885238    -0.9192762
O           3.0217903    -1.3482529    -1.6880581
C           3.2182891    -1.3365363    -3.0946587
H           2.4593707    -2.0056603    -3.5020130
H           4.2157020    -1.7071105    -3.3664359
H           3.0772652    -0.3306822    -3.5105712
C           4.8933904     0.1879738    -1.3961683
H           5.0970180     0.2481588    -2.4590194
C           1.3635249    -2.6396804     2.3669352
H           1.0502236    -3.3202732     3.1452528
C           2.6314215    -2.1516098     2.1476853
H           3.5682611    -2.2948250     2.6640690
N           2.5527139    -1.3335352     1.0546968
N           1.2902350    -1.2628330     0.5511345
C           0.5761088    -2.0500948     1.3473953
H          -0.4849331    -2.1647675     1.1652312
22
448_C9H9N3O_4-5-18-16 (-30,) energy =    -587.8088541
C           5.7180819     0.8259761    -0.4766066
H           6.5515081     1.4342955    -0.8142702
C           5.4624139     0.6569739     0.8776679
H           6.0927822     1.1172487     1.6347874
N           4.4262693    -0.0602287     1.3300381
C           3.6215393    -0.6581175     0.4598459
C           3.8218807    -0.5969535    -0.9445048
O           3.0028703    -1.3181591    -1.7428881
C           3.2053240    -1.2617335    -3.1470714
H           2.4398005    -1.9078018    -3.5786707
H           4.1992754    -1.6349949    -3.4280661
H           3.0778698    -0.2412035    -3.5307293
C           4.8869309     0.1855869    -1.3981895
H           5.0817770     0.2809656    -2.4599966
C           1.3515927    -2.5577699     2.4656271
H           1.0218636    -3.1308106     3.3200692
C           2.6010305    -2.0252836     2.2530749
H           3.5039391    -2.0220478     2.8429009
N           2.5602247    -1.4000545     1.0346150
N           1.3310556    -1.4875546     0.4522888
C           0.6082751    -2.1880267     1.3166409
H          -0.4282427    -2.4014994     1.0880058
22
448_C9H9N3O_4-5-18-16 (-15,) energy =    -587.8086968
C           5.7402422     0.7765847    -0.4667985
H           6.5790187     1.3814001    -0.7970432
C           5.4957891     0.5690286     0.8835108
H           6.1402562     0.9955787     1.6485687
N           4.4580052    -0.1514659     1.3226828
C           3.6263535    -0.7093148     0.4497252
C           3.8113683    -0.6023819    -0.9564334
O           2.9713400    -1.2691876    -1.7801387
C           3.1754045    -1.1703554    -3.1814624
H           2.3946141    -1.7838607    -3.6328737
H           4.1600821    -1.5574772    -3.4760350
H           3.0719421    -0.1351562    -3.5321462
C           4.8857993     0.1772846    -1.3938940
H           5.0669376     0.3047738    -2.4545963
C           1.3226874    -2.4661194     2.5427451
H           0.9574353    -2.9189121     3.4531265
C           2.5420795    -1.8652337     2.3467081
H           3.3822394    -1.6864802     2.9974097
N           2.5743419    -1.4555192     1.0366697
N           1.4130914    -1.7461980     0.3819544
C           0.6667443    -2.3585436     1.2903719
H          -0.3230455    -2.7013810     1.0163543
22
448_C9H9N3O_4-5-18-16 (0,) energy =    -587.8083168
C           5.7992304     0.6756042    -0.4544304
H           6.6613291     1.2476021    -0.7828058
C           5.5430442     0.4755841     0.8945280
H           6.1951831     0.8837552     1.6632102
N           4.4899507    -0.2238297     1.3273874
C           3.6404636    -0.7587721     0.4560134
C           3.8077125    -0.6154571    -0.9506971
O           2.9100774    -1.1822625    -1.7885431
C           3.0957603    -1.0298525    -3.1875374
H           2.2646994    -1.5641780    -3.6498066
H           4.0437349    -1.4725782    -3.5209893
H           3.0620006     0.0257872    -3.4881517
C           4.9162354     0.1202023    -1.3810800
H           5.0914110     0.2606541    -2.4410133
C           1.2632328    -2.3653600     2.5902804
H           0.8256753    -2.6741740     3.5286192
C           2.3999957    -1.6158877     2.4140583
H           3.0993048    -1.1744645     3.1040422
N           2.5722163    -1.4713888     1.0577333
N           1.5885926    -2.0994759     0.3509722
C           0.8052644    -2.6351899     1.2761696
H          -0.0659139    -3.1992610     0.9676553
22
448_C9H9N3O_4-5-18-16 (15,) energy =    -587.8086968
C           5.0740993     1.3515384    -0.8525800
H           5.7890459     2.0647599    -1.2507956
C           4.2080630     1.7036504     0.1731738
H           4.2120933     2.7036163     0.6005477
N           3.3321431     0.8414908     0.7008338
C           3.2630586    -0.3989278     0.2302125
C           4.0683901    -0.8508227    -0.8515361
O           3.8801584    -2.1014443    -1.3303703
C           4.6766619    -2.5366258    -2.4218452
H           4.3491179    -3.5554791    -2.6326714
H           5.7439368    -2.5442846    -2.1645771
H           4.5214544    -1.9116499    -3.3115317
C           4.9957165     0.0573928    -1.3700575
H           5.6449582    -0.2368191    -2.1861940
C           0.6203942    -1.8435049     2.1546592
H          -0.2400490    -1.8512781     2.8079599
C           1.2764552    -0.7427111     1.6604444
H           1.1301210     0.3165940     1.7934614
N           2.2901703    -1.2124629     0.8624329
N           2.3317210    -2.5760563     0.8392862
C           1.3224317    -2.9499102     1.6131027
H           1.1328883    -4.0057455     1.7600459
22
448_C9H9N3O_4-5-18-16 (30,) energy =    -587.8088541
C           5.1209961     1.3394712    -0.8264681
H           5.8425315     2.0455417    -1.2258670
C           4.2859146     1.6926596     0.2251421
H           4.3226234     2.6847139     0.6689073
N           3.4062528     0.8386450     0.7631646
C           3.3020404    -0.3866233     0.2630116
C           4.0674116    -0.8351156    -0.8456544
O           3.8201193    -2.0687987    -1.3408350
C           4.5813800    -2.5164948    -2.4525689
H           4.2162271    -3.5207904    -2.6711140
H           5.6518095    -2.5631312    -2.2139790
H           4.4316090    -1.8741769    -3.3307590
C           5.0050833     0.0583491    -1.3700816
H           5.6275761    -0.2320043    -2.2083499
C           0.5809213    -1.8747465     2.0421951
H          -0.3541387    -1.9051144     2.5824809
C           1.1871527    -0.7714096     1.4899757
H           0.9218019     0.2736963     1.4678055
N           2.3386679    -1.2126871     0.8928929
N           2.5171750    -2.5549116     1.0484102
C           1.4546665    -2.9488383     1.7383921
H           1.3525701    -3.9943883     2.0003372
22
448_C9H9N3O_4-5-18-16 (45,) energy =    -587.8081731
C           5.1646208     1.3344299    -0.8098664
H           5.8907796     2.0305004    -1.2186920
C           4.3699015     1.6915864     0.2722933
H           4.4464728     2.6751115     0.7296232
N           3.4860555     0.8504088     0.8255084
C           3.3378980    -0.3595255     0.3023101
C           4.0623868    -0.8113555    -0.8294241
O           3.7671486    -2.0346835    -1.3235098
C           4.4908186    -2.4989692    -2.4540031
H           4.0937668    -3.4919571    -2.6683545
H           5.5643638    -2.5752838    -2.2388516
H           4.3388423    -1.8488781    -3.3259580
C           5.0063323     0.0653801    -1.3708021
H           5.5992273    -0.2260442    -2.2300381
C           0.5601745    -1.9281053     1.9268070
H          -0.4289877    -2.0036996     2.3545760
C           1.1319914    -0.8222014     1.3404219
H           0.7781417     0.1849448     1.1814309
N           2.3857905    -1.1946466     0.9412510
N           2.6602905    -2.4932440     1.2424508
C           1.5573294    -2.9306423     1.8390645
H           1.5164318    -3.9533811     2.1918766
22
448_C9H9N3O_4-5-18-16 (60,) energy =    -587.8068732
C           5.1966915     1.3343103    -0.7989640
H           5.9290666     2.0166614    -1.2199916
C           4.4478840     1.6979913     0.3144415
H           4.5709062     2.6711102     0.7836491
N           3.5553272     0.8758222     0.8829877
C           3.3559166    -0.3177352     0.3418860
C           4.0369847    -0.7766240    -0.8112919
O           3.6951674    -1.9907209    -1.2977909
C           4.3849823    -2.4785911    -2.4401062
H           3.9601007    -3.4627023    -2.6415035
H           5.4602422    -2.5792870    -2.2451077
H           4.2311216    -1.8292541    -3.3121579
C           4.9884481     0.0790281    -1.3735423
H           5.5493730    -0.2173877    -2.2524260
C           0.5458583    -1.9927116     1.8093120
H          -0.4778201    -2.1316865     2.1254676
C           1.0860551    -0.8848845     1.1943869
H           0.6628145     0.0643583     0.9013471
N           2.4088124    -1.1562212     0.9905903
N           2.7573348    -2.3951309     1.4296379
C           1.6314797    -2.8931518     1.9305945
H           1.6387461    -3.8835930     2.3677275
22
448_C9H9N3O_4-5-18-16 (75,) energy =    -587.8054153
C           5.2259609     1.3323864    -0.7757670
H           5.9643932     2.0037618    -1.2040849
C           4.5216751     1.6934621     0.3681621
H           4.6900537     2.6515467     0.8538587
N           3.6173729     0.8887047     0.9432311
C           3.3694492    -0.2850908     0.3814710
C           4.0110747    -0.7432631    -0.7923461
O           3.6308565    -1.9476279    -1.2752025
C           4.2858588    -2.4473069    -2.4334478
H           3.8383737    -3.4230527    -2.6263144
H           5.3630626    -2.5678825    -2.2624643
H           4.1241597    -1.7938897    -3.3008696
C           4.9688467     0.0957937    -1.3696008
H           5.5002007    -0.2000299    -2.2669339
C           0.5527269    -2.0823406     1.6946592
H          -0.4857330    -2.2983726     1.9001303
C           1.0633564    -0.9831880     1.0382481
H           0.5919058    -0.1163687     0.5986540
N           2.4199566    -1.1264984     1.0302871
N           2.8225670    -2.2800311     1.6260466
C           1.6921305    -2.8479633     2.0363645
H           1.7353158    -3.7895362     2.5689907
22
448_C9H9N3O_4-5-18-16 (90,) energy =    -587.8042749
C           5.2649282     1.3173301    -0.7510910
H           6.0088793     1.9834062    -1.1782433
C           4.6025650     1.6596184     0.4240610
H           4.8130618     2.5954823     0.9359622
N           3.6847954     0.8664764     0.9931343
C           3.3932028    -0.2824819     0.4027114
C           3.9990428    -0.7245378    -0.7945521
O           3.5887743    -1.9156227    -1.2881509
C           4.2091153    -2.4049846    -2.4701859
H           3.7436679    -3.3712078    -2.6684451
H           5.2883500    -2.5426114    -2.3272902
H           4.0355256    -1.7348164    -3.3222351
C           4.9610770     0.1073221    -1.3757938
H           5.4651352    -0.1767060    -2.2925260
C           0.5835763    -2.1699598     1.6103444
H          -0.4508993    -2.4625580     1.7179411
C           1.0831257    -1.1273987     0.8585679
H           0.6016105    -0.3891787     0.2336335
N           2.4337585    -1.1243764     1.0409878
N           2.8491389    -2.1301304     1.8552461
C           1.7265250    -2.7535032     2.2039461
H           1.7781674    -3.6021313     2.8742691
22
448_C9H9N3O_4-5-18-16 (105,) energy =    -587.8043089
C           5.2843285     1.2876214    -0.7048776
H           6.0208405     1.9711685    -1.1168707
C           4.6673075     1.5616560     0.5122851
H           4.9072719     2.4616408     1.0733818
N           3.7502155     0.7521146     1.0567417
C           3.4319508    -0.3618042     0.4145886
C           3.9915278    -0.7345570    -0.8279897
O           3.5587376    -1.8962378    -1.3772692
C           4.1463603    -2.3221105    -2.6000925
H           3.6735136    -3.2758486    -2.8378205
H           5.2288026    -2.4681142    -2.4939681
H           3.9520611    -1.6070175    -3.4100197
C           4.9412856     0.1226328    -1.3916755
H           5.4117283    -0.1116817    -2.3397554
C           0.5947111    -2.2234999     1.5945334
H          -0.4258861    -2.5769899     1.6226250
C           1.1615022    -1.3812935     0.6625571
H           0.7575363    -0.8951191    -0.2134927
N           2.4661525    -1.2148393     1.0247703
N           2.7788156    -1.8959297     2.1590494
C           1.6476945    -2.5089642     2.4951471
H           1.6285008    -3.1392891     3.3751446
22
448_C9H9N3O_4-5-18-16 (120,) energy =    -587.8054426
C           5.3020709     1.2713180    -0.6916486
H           6.0350342     1.9591939    -1.1023654
C           4.7289923     1.5054201     0.5539974
H           5.0004269     2.3790678     1.1419464
N           3.8135685     0.6922947     1.0954229
C           3.4578360    -0.3944785     0.4268149
C           3.9741935    -0.7271735    -0.8475566
O           3.5115750    -1.8654395    -1.4280890
C           4.0737507    -2.2615642    -2.6726469
H           3.5897681    -3.2051908    -2.9280598
H           5.1568148    -2.4175491    -2.5900479
H           3.8704259    -1.5231625    -3.4590453
C           4.9165276     0.1371921    -1.4086309
H           5.3528273    -0.0699813    -2.3790755
C           0.6343290    -2.3045241     1.5499073
H          -0.3530023    -2.7419590     1.5150333
C           1.2682049    -1.5975514     0.5537112
H           0.9632395    -1.3252339    -0.4454081
N           2.4980684    -1.2474917     1.0387842
N           2.6868615    -1.6754816     2.3169443
C           1.5666438    -2.3227301     2.6159151
H           1.4670069    -2.7865448     3.5890637
22
448_C9H9N3O_4-5-18-16 (135,) energy =    -587.8063097
C           5.3281745     1.2569568    -0.6236207
H           6.0736883     1.9347124    -1.0281658
C           4.7813277     1.4692055     0.6367066
H           5.0876305     2.3158421     1.2468449
N           3.8512034     0.6680134     1.1690694
C           3.4459054    -0.3874294     0.4781353
C           3.9420817    -0.7018126    -0.8113375
O           3.4542673    -1.8179702    -1.4192436
C           4.0121686    -2.2019339    -2.6695771
H           3.5127777    -3.1326788    -2.9423203
H           5.0921832    -2.3774927    -2.5873766
H           3.8229776    -1.4468582    -3.4434266
C           4.8985562     0.1521460    -1.3615625
H           5.3152892    -0.0432357    -2.3429062
C           0.6724744    -2.3989588     1.5588678
H          -0.2634198    -2.9340102     1.4862858
C           1.3458121    -1.7590981     0.5450126
H           1.1257023    -1.6422606    -0.5040105
N           2.4799376    -1.2239996     1.0978599
N           2.5670313    -1.4805291     2.4333285
C           1.4823979    -2.1945390     2.7035036
H           1.3200202    -2.5470301     3.7141892
22
448_C9H9N3O_4-5-18-16 (150,) energy =    -587.8062325
C           5.3617331     1.2291882    -0.5936012
H           6.1247878     1.8918177    -0.9901158
C           4.8311080     1.4263992     0.6753835
H           5.1691873     2.2462838     1.3052188
N           3.8816244     0.6420295     1.1953605
C           3.4264801    -0.3811342     0.4860940
C           3.9125225    -0.6839881    -0.8124757
O           3.4032108    -1.7766743    -1.4489188
C           3.9617843    -2.1505105    -2.7020707
H           3.4462444    -3.0668190    -2.9932959
H           5.0375179    -2.3483421    -2.6158277
H           3.7919029    -1.3794865    -3.4644002
C           4.8910407     0.1532926    -1.3483693
H           5.2945506    -0.0351806    -2.3364297
C           0.7193167    -2.4915537     1.5688984
H          -0.1534488    -3.1232040     1.4864167
C           1.4216245    -1.9086730     0.5416097
H           1.2830782    -1.9329935    -0.5258067
N           2.4430236    -1.1909214     1.1138471
N           2.4326449    -1.2924531     2.4747370
C           1.3977614    -2.0757401     2.7414828
H           1.1759705    -2.3242555     3.7716714
22
448_C9H9N3O_4-5-18-16 (165,) energy =    -587.8053430
C           5.3958104     1.1900676    -0.5749999
H           6.1709474     1.8408399    -0.9674403
C           4.8797692     1.3740876     0.7013595
H           5.2413719     2.1727582     1.3454981
N           3.9198366     0.6002344     1.2142669
C           3.4255802    -0.3981505     0.4950601
C           3.8970939    -0.6863527    -0.8145399
O           3.3664035    -1.7527029    -1.4807595
C           3.9014775    -2.0938782    -2.7533084
H           3.3644935    -2.9898309    -3.0683533
H           4.9740593    -2.3152087    -2.6886296
H           3.7361037    -1.2942611    -3.4863747
C           4.8912899     0.1383220    -1.3407486
H           5.2790275    -0.0412308    -2.3365597
C           0.7837478    -2.5767617     1.6282054
H          -0.0152815    -3.3014823     1.5653729
C           1.5345439    -2.0816133     0.5904239
H           1.5055243    -2.2748203    -0.4666801
N           2.4235715    -1.1810021     1.1318259
N           2.2782837    -1.0878638     2.4877030
C           1.2951730    -1.9253585     2.7777884
H           0.9875157    -2.0391056     3.8096827
22
448_C9H9N3O_4-5-18-16 (180,) energy =    -587.8047062
C           5.4309728     1.1699760    -0.5292458
H           6.2105092     1.8191940    -0.9153674
C           4.9176063     1.3411617     0.7495625
H           5.2823726     2.1313580     1.4024360
N           3.9587622     0.5628685     1.2560071
C           3.4547780    -0.4255263     0.5297594
C           3.9102161    -0.6876566    -0.7923550
O           3.3541121    -1.7206822    -1.4908139
C           3.8170233    -1.9794557    -2.8101570
H           3.2402728    -2.8359435    -3.1625325
H           4.8847006    -2.2320081    -2.8174093
H           3.6385245    -1.1231719    -3.4724962
C           4.9122956     0.1346297    -1.3072291
H           5.2889927    -0.0288388    -2.3099077
C           0.8632368    -2.6538371     1.6966667
H           0.1516002    -3.4666503     1.6713911
C           1.7201945    -2.2745929     0.6935212
H           1.8798733    -2.6695103    -0.2924721
N           2.4384752    -1.1958946     1.1625988
N           2.0694997    -0.8700485     2.4385864
C           1.1280652    -1.7454694     2.7509017
H           0.6668767    -1.6952358     3.7292824
