24
227_C9H12N2O_0-10-18-16 (-165,) energy =    -534.9275129
C           1.4497521    -0.7044605    -1.0664128
N           0.1542270    -1.1894801    -0.9699133
C          -0.6012643    -1.2511388     0.2690453
H          -1.6547193    -1.4157985     0.0280073
H          -0.5430510    -0.3039698     0.8174536
H          -0.2815065    -2.0706643     0.9332162
C          -0.4160112    -1.8526859    -2.1336583
H          -1.4059329    -1.4381377    -2.3607335
H          -0.5211934    -2.9343883    -1.9674177
H           0.2479024    -1.6849634    -2.9800988
N           1.9913987    -0.2661713     0.1374063
H           1.5068425    -0.5188007     0.9851506
C           5.7956886     1.3664471     0.9643105
H           6.7689543     1.7893793     1.1961215
C           4.9706470     0.8892479     1.9838665
H           5.2947472     0.9359550     3.0202526
C           3.7255869     0.3443604     1.6823170
H           3.0911744    -0.0291389     2.4848199
C           3.2782151     0.2709054     0.3527232
C           4.1046374     0.7518337    -0.6748965
H           3.7695528     0.6863090    -1.6999073
C           5.3513747     1.2902898    -0.3563621
H           5.9823618     1.6570574    -1.1619959
O           2.0538035    -0.6508382    -2.1336361
24
227_C9H12N2O_0-10-18-16 (-150,) energy =    -534.9270764
C           1.4553196    -0.7282766    -1.0143518
N           0.1585089    -1.2088174    -0.9365581
C          -0.6711315    -1.1260684     0.2525491
H          -1.7169540    -1.2545881    -0.0402038
H          -0.5863241    -0.1409918     0.7234345
H          -0.4390676    -1.9027856     0.9997408
C          -0.3586537    -1.9746853    -2.0607064
H          -1.3201200    -1.5635911    -2.3932594
H          -0.5066784    -3.0299171    -1.7905666
H           0.3609670    -1.9111904    -2.8754096
N           1.9352455    -0.1732040     0.1725780
H           1.4618980    -0.4394375     1.0236060
C           5.8009016     1.3358725     0.9486936
H           6.7899693     1.7299684     1.1640351
C           5.0368799     0.7528038     1.9603680
H           5.4260545     0.6857411     2.9729422
C           3.7722325     0.2412892     1.6786074
H           3.1871539    -0.2221969     2.4713700
C           3.2437227     0.3181764     0.3809428
C           4.0081819     0.9067107    -0.6375224
H           3.6118137     0.9527975    -1.6421187
C           5.2773930     1.4036711    -0.3436711
H           5.8613840     1.8542322    -1.1420878
O           2.1127567    -0.7627116    -2.0491046
24
227_C9H12N2O_0-10-18-16 (-135,) energy =    -534.9261321
C           1.4646610    -0.7591243    -0.9952413
N           0.1709843    -1.2473763    -0.9473683
C          -0.7329473    -1.0500166     0.1720733
H          -1.7611878    -1.1725545    -0.1807260
H          -0.6449236    -0.0345054     0.5707259
H          -0.5753728    -1.7724136     0.9898136
C          -0.2808081    -2.1102303    -2.0282325
H          -1.2061310    -1.7194055    -2.4705678
H          -0.4724968    -3.1307952    -1.6680836
H           0.4974842    -2.1379469    -2.7893377
N           1.8710482    -0.0873795     0.1647768
H           1.3945258    -0.3454049     1.0177938
C           5.7863024     1.3110989     0.8996036
H           6.7890292     1.6782496     1.0991961
C           5.0791318     0.6210411     1.8844484
H           5.5276506     0.4420881     2.8581044
C           3.7967914     0.1411615     1.6213425
H           3.2565709    -0.4133366     2.3866085
C           3.1955773     0.3689373     0.3763789
C           3.9038356     1.0624499    -0.6145007
H           3.4478148     1.2211161    -1.5829276
C           5.1923134     1.5211227    -0.3470513
H           5.7344291     2.0548291    -1.1232909
O           2.1827367    -0.8712980    -1.9817141
24
227_C9H12N2O_0-10-18-16 (-120,) energy =    -534.9246015
C           1.4904866    -0.7979214    -0.9529090
N           0.1961124    -1.2835324    -0.9350450
C          -0.7778724    -0.9675687     0.0946948
H          -1.7827971    -1.0769375    -0.3247984
H          -0.6720638     0.0704037     0.4232320
H          -0.7113659    -1.6315447     0.9722301
C          -0.1970483    -2.2424656    -1.9556142
H          -1.0855817    -1.8884678    -2.4943282
H          -0.4281242    -3.2211784    -1.5121039
H           0.6287780    -2.3507337    -2.6572160
N           1.8295861    -0.0121083     0.1621930
H           1.3407720    -0.2441694     1.0171112
C           5.7933665     1.2668346     0.8643397
H           6.8093420     1.6037881     1.0501622
C           5.1330550     0.4732438     1.8026033
H           5.6328814     0.1820569     2.7226673
C           3.8330180     0.0310257     1.5561563
H           3.3278427    -0.6078265     2.2778643
C           3.1697906     0.4091865     0.3832404
C           3.8326368     1.2018565    -0.5610654
H           3.3227514     1.4745506    -1.4775125
C           5.1392712     1.6203507    -0.3185147
H           5.6473611     2.2337287    -1.0578834
O           2.2668650    -0.9962647    -1.8784305
24
227_C9H12N2O_0-10-18-16 (-105,) energy =    -534.9226710
C           1.5068990    -0.8390366    -0.9002786
N           0.2022452    -1.2960707    -0.9152633
C          -0.8216178    -0.8561779     0.0156327
H          -1.8029057    -0.9827308    -0.4523942
H          -0.7023345     0.2059850     0.2475585
H          -0.8272243    -1.4309688     0.9564761
C          -0.1543122    -2.3438301    -1.8586537
H          -1.0011260    -2.0285834    -2.4820902
H          -0.4346972    -3.2698078    -1.3369657
H           0.7082286    -2.5359406    -2.4952254
N           1.7972121     0.0548582     0.1470728
H           1.2771484    -0.1047630     1.0010095
C           5.7933602     1.2437064     0.8428567
H           6.8179346     1.5568935     1.0235671
C           5.1756027     0.3366620     1.7046249
H           5.7179937    -0.0657762     2.5560578
C           3.8637292    -0.0746655     1.4653036
H           3.3890009    -0.8014577     2.1207398
C           3.1503188     0.4480969     0.3822272
C           3.7713000     1.3515542    -0.4851053
H           3.2139262     1.7370841    -1.3321766
C           5.0894917     1.7418982    -0.2562209
H           5.5662757     2.4436698    -0.9352840
O           2.3346249    -1.1442640    -1.7484704
24
227_C9H12N2O_0-10-18-16 (-90,) energy =    -534.9211626
C           1.5083266    -1.1039765    -0.5758442
N           0.1566279    -1.3502213    -0.7316498
C          -0.8825371    -0.6746295     0.0239433
H          -1.7585766    -1.3283869     0.0852289
H          -1.2078871     0.2721251    -0.4381819
H          -0.5478022    -0.4755683     1.0457850
C          -0.2642585    -2.2770283    -1.7697307
H          -0.8539387    -1.7656518    -2.5438094
H          -0.8782595    -3.0811033    -1.3432390
H           0.6277570    -2.7084027    -2.2219308
N           1.8126641    -0.0782178     0.3356330
H           1.1388973     0.6767614     0.3765289
C           5.7844100     1.3028474     0.7953230
H           6.7998233     1.6655177     0.9299399
C           5.3278547     0.2071302     1.5309976
H           5.9860580    -0.2837649     2.2428188
C           4.0212683    -0.2522959     1.3682534
H           3.6482187    -1.0926360     1.9451456
C           3.1719674     0.3657950     0.4473280
C           3.6286377     1.4624275    -0.2893679
H           2.9651267     1.9398513    -1.0063181
C           4.9305418     1.9322551    -0.1118892
H           5.2784932     2.7853449    -0.6882349
O           2.3786177    -1.7484827    -1.1464778
24
227_C9H12N2O_0-10-18-16 (-75,) energy =    -534.9229617
C           1.5118370    -1.1614522    -0.5053971
N           0.1596574    -1.3670194    -0.7045576
C          -0.8838284    -0.5657352    -0.0902545
H          -1.7901753    -1.1731501    -0.0007719
H          -1.1426955     0.3308981    -0.6771390
H          -0.5926791    -0.2603762     0.9186152
C          -0.2533883    -2.3930722    -1.6486296
H          -0.7788439    -1.9529993    -2.5078884
H          -0.9256163    -3.1136630    -1.1647662
H           0.6378352    -2.9124086    -1.9981141
N           1.8190272    -0.0469745     0.2973201
H           1.1685041     0.7251562     0.2208024
C           5.7882596     1.3093417     0.8114711
H           6.8027329     1.6675455     0.9630225
C           5.3727239     0.1082419     1.3921194
H           6.0631274    -0.4694019     2.0009352
C           4.0683781    -0.3479038     1.2135082
H           3.7329285    -1.2712182     1.6736124
C           3.1762422     0.3800347     0.4193884
C           3.5908899     1.5822408    -0.1615811
H           2.8957319     2.1489295    -0.7772847
C           4.8913579     2.0476889     0.0391968
H           5.2027706     2.9840360    -0.4161546
O           2.3766878    -1.9058915    -0.9480993
24
227_C9H12N2O_0-10-18-16 (-60,) energy =    -534.9249273
C           1.5301241    -1.2181743    -0.4622367
N           0.1792141    -1.4022401    -0.6900716
C          -0.8563468    -0.5020475    -0.2143297
H          -1.7927475    -1.0604714    -0.1190455
H          -1.0426886     0.3429624    -0.8973478
H          -0.6061024    -0.1121519     0.7765626
C          -0.2352260    -2.5122562    -1.5338452
H          -0.7077186    -2.1523486    -2.4585777
H          -0.9539477    -3.1507818    -1.0040307
H           0.6482246    -3.0975065    -1.7847486
N           1.8464822    -0.0319670     0.2222157
H           1.2072924     0.7375423     0.0706674
C           5.7954900     1.3267968     0.8458238
H           6.8047382     1.6870437     1.0243356
C           5.4176885     0.0492072     1.2674987
H           6.1340554    -0.5873217     1.7801051
C           4.1222652    -0.4165734     1.0547644
H           3.8249979    -1.4041812     1.3867999
C           3.1947490     0.3888258     0.3818140
C           3.5713390     1.6687105    -0.0405100
H           2.8513442     2.2968587    -0.5615744
C           4.8643298     2.1366894     0.1960569
H           5.1422585     3.1331746    -0.1369488
O           2.3813297    -2.0362505    -0.7870201
24
227_C9H12N2O_0-10-18-16 (-45,) energy =    -534.9263772
C           1.5175027    -1.2538398    -0.4215573
N           0.1630980    -1.4105922    -0.6567153
C          -0.8459291    -0.4280083    -0.3026016
H          -1.8085134    -0.9363422    -0.1913786
H          -0.9725456     0.3578846    -1.0652277
H          -0.6133450     0.0404982     0.6584933
C          -0.2775358    -2.5822502    -1.3980654
H          -0.7108652    -2.2983663    -2.3674135
H          -1.0357857    -3.1346964    -0.8283338
H           0.5857620    -3.2248140    -1.5641803
N           1.8671903    -0.0170303     0.1342018
H           1.2343857     0.7485143    -0.0521953
C           5.7894924     1.3482450     0.8888094
H           6.7914860     1.7125085     1.0970480
C           5.4483458     0.0216884     1.1627163
H           6.1872446    -0.6512504     1.5899619
C           4.1646419    -0.4572983     0.9089143
H           3.9047107    -1.4861438     1.1201419
C           3.2048229     0.3961369     0.3460691
C           3.5452795     1.7275555     0.0716694
H           2.8025155     2.3939228    -0.3635848
C           4.8278063     2.2004105     0.3458514
H           5.0733725     3.2361154     0.1262912
O           2.3388154    -2.1351783    -0.6461783
24
227_C9H12N2O_0-10-18-16 (-30,) energy =    -534.9271903
C           1.4922447    -1.2827642    -0.3861415
N           0.1338442    -1.4074129    -0.6265251
C          -0.8306827    -0.3414460    -0.4194722
H          -1.8300546    -0.7807794    -0.3558985
H          -0.8452952     0.3969636    -1.2379876
H          -0.6459867     0.1780645     0.5268083
C          -0.3417133    -2.6245208    -1.2672315
H          -0.7168263    -2.4215300    -2.2803462
H          -1.1527709    -3.0739254    -0.6804967
H           0.4898251    -3.3249393    -1.3268965
N           1.8852464    -0.0176846     0.0506163
H           1.2528789     0.7470013    -0.1346763
C           5.7771750     1.3676893     0.9177057
H           6.7707489     1.7401757     1.1500493
C           5.4820214     0.0091626     1.0449622
H           6.2498046    -0.6829878     1.3811280
C           4.2113539    -0.4864531     0.7553502
H           3.9909644    -1.5405837     0.8476734
C           3.2113744     0.3926416     0.3122535
C           3.5064797     1.7587873     0.1847319
H           2.7345729     2.4463547    -0.1575228
C           4.7775218     2.2411712     0.4878795
H           4.9842593     3.3028725     0.3814633
O           2.2759861    -2.2168700    -0.5197111
24
227_C9H12N2O_0-10-18-16 (-15,) energy =    -534.9275349
C           1.4872855    -1.3061844    -0.3562395
N           0.1267183    -1.4087910    -0.6036591
C          -0.8017146    -0.2943282    -0.5304378
H          -1.8201039    -0.6899148    -0.4907948
H          -0.7416821     0.3796668    -1.4005537
H          -0.6501856     0.2896169     0.3845221
C          -0.3781270    -2.6627223    -1.1438644
H          -0.7206852    -2.5414995    -2.1813794
H          -1.2189222    -3.0275703    -0.5407570
H           0.4280922    -3.3939143    -1.1166422
N           1.9185824    -0.0233161    -0.0368766
H           1.2780416     0.7379992    -0.2020605
C           5.7752915     1.3859711     0.9425206
H           6.7597945     1.7665219     1.1990030
C           5.5262068     0.0129421     0.9320195
H           6.3218658    -0.6838975     1.1831311
C           4.2690721    -0.4963663     0.6065477
H           4.0841732    -1.5607032     0.5911152
C           3.2310032     0.3887908     0.2758162
C           3.4804454     1.7712722     0.2862194
H           2.6802142     2.4645583     0.0312702
C           4.7397636     2.2634582     0.6175072
H           4.9087216     3.3371300     0.6181324
O           2.2387542    -2.2758220    -0.4013054
24
227_C9H12N2O_0-10-18-16 (0,) energy =    -534.9275617
C           1.4924974    -1.3282626    -0.2966729
N           0.1319912    -1.4271558    -0.5506711
C          -0.7591048    -0.2839317    -0.6505379
H          -1.7889265    -0.6470433    -0.6880014
H          -0.5871467     0.3214194    -1.5547958
H          -0.6833942     0.3641880     0.2315747
C          -0.3900329    -2.7205115    -0.9698968
H          -0.6581936    -2.7201831    -2.0362269
H          -1.2827197    -2.9760177    -0.3863132
H           0.3805321    -3.4701214    -0.7982092
N           1.9465000    -0.0329979    -0.0855886
H           1.2884966     0.7213354    -0.2051786
C           5.7759260     1.4132031     0.9471503
H           6.7536917     1.8047126     1.2127695
C           5.5788205     0.0408061     0.7911679
H           6.4097013    -0.6450788     0.9359627
C           4.3316003    -0.4827895     0.4493086
H           4.1843045    -1.5458561     0.3261530
C           3.2474405     0.3885312     0.2589362
C           3.4446493     1.7711092     0.4156747
H           2.6085598     2.4536939     0.2703029
C           4.6960335     2.2766339     0.7555737
H           4.8233627     3.3498453     0.8710238
O           2.2249696    -2.3130430    -0.2544947
24
227_C9H12N2O_0-10-18-16 (15,) energy =    -534.9275258
C           1.5335422    -1.2919298    -0.3126268
N           0.2236262    -1.4079272    -0.7517681
C          -0.6371357    -0.2785971    -1.0562308
H          -1.4726720    -0.6303647    -1.6676354
H          -0.1053700     0.4768551    -1.6450855
H          -1.0618647     0.1992701    -0.1582311
C          -0.3843993    -2.7303812    -0.7563617
H          -0.8170430    -2.9488962    -1.7407464
H          -1.1804915    -2.8060725    -0.0020610
H           0.3904499    -3.4621606    -0.5338221
N           1.9709298     0.0177206    -0.1423297
H           1.2679533     0.7409491    -0.1260191
C           5.7351606     1.4876201     1.0781291
H           6.6977622     1.8841289     1.3880023
C           5.6056693     0.1485119     0.7074059
H           6.4739693    -0.5052043     0.7274460
C           4.3791278    -0.3806759     0.3057431
H           4.2818623    -1.4204616     0.0289461
C           3.2470457     0.4486857     0.2778944
C           3.3759848     1.7972312     0.6502386
H           2.5027714     2.4477388     0.6300670
C           4.6082027     2.3103414     1.0453804
H           4.6831158     3.3567153     1.3296814
O           2.2475867    -2.2696096    -0.1105555
24
227_C9H12N2O_0-10-18-16 (30,) energy =    -534.9271901
C           1.5245583    -1.2765551    -0.2812046
N           0.2233391    -1.4106373    -0.7369701
C          -0.6076291    -0.2996308    -1.1665257
H          -1.4310729    -0.6911332    -1.7702149
H          -0.0430396     0.3920665    -1.8008256
H          -1.0503644     0.2619859    -0.3275150
C          -0.4082537    -2.7179440    -0.6364797
H          -0.8224912    -3.0180744    -1.6072012
H          -1.2223500    -2.7120502     0.1021492
H           0.3483054    -3.4384699    -0.3297808
N           1.9852950     0.0391295    -0.2356778
H           1.2879189     0.7688926    -0.2338256
C           5.7245631     1.4661109     1.1055730
H           6.6830510     1.8509707     1.4418771
C           5.6193697     0.1681890     0.6021971
H           6.5021324    -0.4633404     0.5433435
C           4.3985505    -0.3413697     0.1618510
H           4.3214466    -1.3498665    -0.2193081
C           3.2479533     0.4582587     0.2389929
C           3.3524190     1.7634897     0.7440041
H           2.4635878     2.3895185     0.8055026
C           4.5809171     2.2628339     1.1703002
H           4.6387289     3.2763727     1.5584600
O           2.2194906    -2.2389555     0.0277639
24
227_C9H12N2O_0-10-18-16 (45,) energy =    -534.9263793
C           1.5243212    -1.2420607    -0.2551026
N           0.2314318    -1.4016560    -0.7214088
C          -0.5622588    -0.3329608    -1.3020142
H          -1.3404691    -0.7750470    -1.9311644
H           0.0523631     0.3044242    -1.9452618
H          -1.0637965     0.2945772    -0.5470187
C          -0.4229046    -2.6847384    -0.5153058
H          -0.7974246    -3.0818206    -1.4674516
H          -1.2698971    -2.5919170     0.1790174
H           0.3080606    -3.3767572    -0.0998979
N           2.0084458     0.0693531    -0.3334126
H           1.3121492     0.8016837    -0.3319157
C           5.7202712     1.4409420     1.1359309
H           6.6746543     1.8096286     1.5009959
C           5.6403649     0.2060752     0.4879522
H           6.5378240    -0.3898909     0.3439273
C           4.4245854    -0.2756564     0.0067183
H           4.3659869    -1.2337052    -0.4926749
C           3.2566134     0.4767536     0.1967033
C           3.3353063     1.7162729     0.8457746
H           2.4311710     2.3043410     0.9937470
C           4.5600767     2.1961217     1.3076416
H           4.6015149     3.1597106     1.8086138
O           2.2032900    -2.1751913     0.1573697
24
227_C9H12N2O_0-10-18-16 (60,) energy =    -534.9249276
C           1.5139789    -1.2147929    -0.2047488
N           0.2294762    -1.3988834    -0.6814665
C          -0.5239966    -0.3889934    -1.4035837
H          -1.2703313    -0.8867747    -2.0303933
H           0.1309532     0.1829285    -2.0673302
H          -1.0611052     0.3080265    -0.7394926
C          -0.4545764    -2.6421789    -0.3619917
H          -0.8018179    -3.1363477    -1.2785641
H          -1.3244948    -2.4614714     0.2849820
H           0.2485099    -3.2946416     0.1536752
N           2.0316508     0.0742367    -0.4169842
H           1.3450869     0.8168604    -0.4438657
C           5.7091772     1.4102518     1.1699937
H           6.6573402     1.7680596     1.5613698
C           5.6613774     0.2553600     0.3846684
H           6.5760670    -0.2867727     0.1598048
C           4.4524221    -0.2041378    -0.1326671
H           4.4134361    -1.0955516    -0.7473653
C           3.2650675     0.4775400     0.1628443
C           3.3113279     1.6346329     0.9485877
H           2.3900218     2.1669079     1.1773747
C           4.5291434     2.1011450     1.4446296
H           4.5498511     3.0016027     2.0528023
O           2.1680439    -2.1072449     0.3198069
24
227_C9H12N2O_0-10-18-16 (75,) energy =    -534.9229617
C           1.4751790    -1.1683612    -0.1627659
N           0.2044780    -1.3689576    -0.6681675
C          -0.4838765    -0.4277631    -1.5333953
H          -1.2025679    -0.9754735    -2.1513206
H           0.2222000     0.0634855    -2.2086858
H          -1.0442583     0.3414656    -0.9768877
C          -0.5304929    -2.5505755    -0.2458821
H          -0.8509558    -3.1364599    -1.1172258
H          -1.4231784    -2.2765403     0.3339085
H           0.1286897    -3.1581904     0.3725024
N           2.0442826     0.0749923    -0.4960034
H           1.3821427     0.8353228    -0.5892912
C           5.6893166     1.3862191     1.1928443
H           6.6295147     1.7367951     1.6094707
C           5.6767554     0.3393580     0.2674173
H           6.6096014    -0.1247949    -0.0413199
C           4.4750201    -0.1036057    -0.2811617
H           4.4572876    -0.9051095    -1.0119422
C           3.2677845     0.4770257     0.1210543
C           3.2789413     1.5249669     1.0465384
H           2.3399683     1.9778398     1.3575720
C           4.4871528     1.9813268     1.5757611
H           4.4846149     2.7972694     2.2935907
O           2.0818344    -2.0119996     0.4840523
24
227_C9H12N2O_0-10-18-16 (90,) energy =    -534.9211624
C           1.4332987    -1.1249315    -0.0925125
N           0.1864119    -1.3558869    -0.6437485
C          -0.4216722    -0.5105658    -1.6551464
H          -1.1201871    -1.1113897    -2.2464802
H           0.3379867    -0.1206659    -2.3383060
H          -0.9893016     0.3336167    -1.2297966
C          -0.6072126    -2.4585182    -0.1259618
H          -0.8949368    -3.1406662    -0.9366926
H          -1.5232516    -2.0947634     0.3608708
H          -0.0030673    -2.9998916     0.6008041
N           2.0574675     0.0535579    -0.5368480
H           1.4309638     0.8215788    -0.7449207
C           5.6792843     1.3767438     1.2026710
H           6.6123541     1.7280337     1.6347643
C           5.6952445     0.4662829     0.1438889
H           6.6415935     0.1090188    -0.2531982
C           4.4987651     0.0237012    -0.4194388
H           4.4968116    -0.6712983    -1.2531787
C           3.2776155     0.4692787     0.0921668
C           3.2611005     1.3804170     1.1521052
H           2.3088375     1.7239131     1.5488584
C           4.4596754     1.8361629     1.7024225
H           4.4389107     2.5445092     2.5263181
O           1.9769561    -1.8970189     0.6864076
24
227_C9H12N2O_0-10-18-16 (105,) energy =    -534.9226729
C           1.1932705    -0.8897566     0.3021602
N           0.0549821    -1.3064287    -0.3623887
C          -0.4471666    -0.6900765    -1.5774869
H          -1.5278805    -0.8536007    -1.6366167
H           0.0015913    -1.1097680    -2.4928760
H          -0.2784787     0.3903447    -1.5607540
C          -0.6489532    -2.4775064     0.1353837
H          -0.6239185    -3.2964016    -0.5972795
H          -1.6986881    -2.2354540     0.3471665
H          -0.1629993    -2.8010484     1.0547760
N           1.8920802     0.1497615    -0.3396217
H           1.8361864     0.1398475    -1.3506051
C           5.6923543     1.3191596     1.0947993
H           6.6673197     1.6276896     1.4619051
C           5.5892766     0.5772419    -0.0824646
H           6.4834127     0.2987476    -0.6338688
C           4.3376028     0.1709002    -0.5468438
H           4.2573480    -0.4296346    -1.4502336
C           3.1789560     0.5364922     0.1453407
C           3.2823546     1.2739861     1.3283147
H           2.3777557     1.5370064     1.8662859
C           4.5358210     1.6577121     1.8015572
H           4.6087731     2.2298036     2.7225869
O           1.5476256    -1.3494273     1.3796148
24
227_C9H12N2O_0-10-18-16 (120,) energy =    -534.9246010
C           1.1513631    -0.8569573     0.3470066
N           0.0380126    -1.2962355    -0.3450302
C          -0.3659239    -0.7888097    -1.6443481
H          -1.4454505    -0.9289812    -1.7579060
H           0.1254762    -1.3077111    -2.4837169
H          -0.1658447     0.2838118    -1.7210771
C          -0.7377924    -2.3914301     0.2155629
H          -0.6978366    -3.2776372    -0.4332021
H          -1.7887353    -2.0974913     0.3350922
H          -0.3214565    -2.6394190     1.1908165
N           1.9301994     0.0849940    -0.3471987
H           1.9048269     0.0047401    -1.3554810
C           5.7010195     1.3449182     1.0788536
H           6.6698273     1.6776999     1.4407130
C           5.5896931     0.7287979    -0.1677780
H           6.4722443     0.5723547    -0.7824020
C           4.3464928     0.2906866    -0.6248308
H           4.2647756    -0.2114666    -1.5867942
C           3.1979385     0.4977363     0.1475646
C           3.3087745     1.1117331     1.4006517
H           2.4199843     1.2505577     2.0047925
C           4.5571505     1.5256697     1.8604530
H           4.6346347     1.9996055     2.8353540
O           1.4193649    -1.2220293     1.4843868
24
227_C9H12N2O_0-10-18-16 (135,) energy =    -534.9261294
C           1.1104373    -0.8351008     0.3790361
N           0.0129808    -1.2751689    -0.3390304
C          -0.2942351    -0.8613378    -1.6967706
H          -1.3690828    -0.9779458    -1.8657600
H           0.2280363    -1.4598757    -2.4610911
H          -0.0546764     0.1958698    -1.8454068
C          -0.8453729    -2.2846342     0.2614017
H          -0.8160322    -3.2212394    -0.3127649
H          -1.8848683    -1.9337949     0.2986328
H          -0.4935421    -2.4720415     1.2747599
N           1.9746872    -0.0012366    -0.3429077
H           1.9671753    -0.1210086    -1.3465199
C           5.7035764     1.3997673     1.0564502
H           6.6632366     1.7693068     1.4065743
C           5.5731079     0.8877837    -0.2346604
H           6.4320113     0.8511309    -0.8995934
C           4.3424938     0.4039238    -0.6766113
H           4.2503427    -0.0118619    -1.6784274
C           3.2196449     0.4502727     0.1603488
C           3.3479852     0.9644765     1.4579508
H           2.4866937     0.9824075     2.1128722
C           4.5871716     1.4280952     1.8954161
H           4.6769566     1.8217824     2.9044784
O           1.2949389    -1.1211702     1.5559990
24
227_C9H12N2O_0-10-18-16 (150,) energy =    -534.9270768
C           1.4605756    -0.6174570    -0.9943164
N           0.2525872    -1.2921164    -0.9299158
C          -0.3032956    -1.8544720     0.2882721
H          -1.0574317    -2.5989895     0.0181750
H          -0.7946403    -1.1037838     0.9289418
H           0.4670939    -2.3713733     0.8701346
C          -0.5864452    -1.3127526    -2.1188615
H          -1.5048836    -0.7275696    -1.9692358
H          -0.8685758    -2.3430092    -2.3698709
H          -0.0189868    -0.8839967    -2.9433161
N           2.1113133    -0.4838656     0.2328789
H           1.5456143    -0.5867174     1.0626525
C           5.7102382     1.5668666     1.0456336
H           6.6358571     2.0883938     1.2717822
C           4.7036759     1.4672914     2.0067715
H           4.8355044     1.9122495     2.9895909
C           3.5144603     0.8049403     1.7108370
H           2.7295209     0.7417171     2.4627967
C           3.3183608     0.2173533     0.4517641
C           4.3300471     0.3132884    -0.5155299
H           4.1766473    -0.1230198    -1.4925743
C           5.5102545     0.9896360    -0.2097987
H           6.2854033     1.0603623    -0.9685286
O           1.9298983    -0.1998336    -2.0476339
24
227_C9H12N2O_0-10-18-16 (165,) energy =    -534.9275121
C           1.4732885    -0.6478162    -1.0167412
N           0.2607012    -1.3145077    -0.9281416
C          -0.3482073    -1.7356197     0.3212720
H          -1.1220212    -2.4759068     0.1009614
H          -0.8271059    -0.9095534     0.8720203
H           0.3836697    -2.2234872     0.9748611
C          -0.5375062    -1.4491959    -2.1379408
H          -1.4543238    -0.8453594    -2.0805620
H          -0.8213068    -2.4975313    -2.2939051
H           0.0622074    -1.1097374    -2.9808515
N           2.0760825    -0.3842746     0.2087695
H           1.5137671    -0.4968367     1.0384929
C           5.7305779     1.5433526     1.0729342
H           6.6682289     2.0352878     1.3151229
C           4.7642825     1.3385912     2.0589753
H           4.9406030     1.6701229     3.0789368
C           3.5620896     0.7112848     1.7440074
H           2.8127957     0.5599247     2.5196503
C           3.3049164     0.2707870     0.4351575
C           4.2754380     0.4732006    -0.5584980
H           4.0769891     0.1469938    -1.5691853
C           5.4726812     1.1078379    -0.2275584
H           6.2149003     1.2604691    -1.0069920
O           1.9750102    -0.3358447    -2.0926791
24
227_C9H12N2O_0-10-18-16 (180,) energy =    -534.9275630
C           1.4313232    -0.6615874    -1.0855719
N           0.1381250    -1.1531192    -0.9792113
C          -0.5425604    -1.3772985     0.2846281
H          -1.5920805    -1.6020779     0.0800923
H          -0.5279671    -0.4792970     0.9148983
H          -0.1270057    -2.2223164     0.8564291
C          -0.4859310    -1.6927825    -2.1793468
H          -1.4948498    -1.2801477    -2.3001361
H          -0.5598223    -2.7889987    -2.1366512
H           0.1243636    -1.4115453    -3.0358537
N           2.0265531    -0.3388663     0.1268686
H           1.5205158    -0.5550229     0.9715618
C           5.7788872     1.3962134     0.9817699
H           6.7397651     1.8421745     1.2219283
C           4.8914798     1.0374281     1.9977105
H           5.1531992     1.2018828     3.0397270
C           3.6609843     0.4668787     1.6856525
H           2.9756825     0.1922016     2.4862811
C           3.2930206     0.2406797     0.3483285