27
388_C12H11NO2S_11-12-22-20 (-165,) energy =   -1067.2175967
C          -1.8250595    -2.1188290    -1.2527925
H          -2.8320550    -2.2280350    -1.6456553
C          -1.2451591    -3.1607694    -0.5269163
H          -1.7960493    -4.0814088    -0.3575444
C           0.0494823    -3.0290227    -0.0230631
H           0.5217347    -3.8391109     0.5206622
C           0.7470251    -1.8415563    -0.2528711
C           0.1815671    -0.7943451    -0.9856310
H           0.7570238     0.1055719    -1.1755904
C          -1.1112647    -0.9401116    -1.4856322
H          -1.5585227    -0.1362761    -2.0632736
S           2.4024376    -1.6365828     0.4144354
N           2.2157818    -0.8459932     1.8887701
H           2.3183177     0.1565538     1.7836318
O           2.9435020    -2.9706341     0.6689730
O           3.1000902    -0.6479498    -0.4085220
C           0.7433891    -2.1306735     5.6300415
H           0.3690943    -2.4454091     6.5996133
C           0.8937425    -0.7746202     5.3353921
H           0.6369259    -0.0208827     6.0748540
C           1.3693876    -0.3714554     4.0904804
H           1.4754036     0.6877523     3.8660081
C           1.7100779    -1.3251031     3.1183436
C           1.5813696    -2.6890258     3.4170094
H           1.8916725    -3.4351152     2.6967293
C           1.0911964    -3.0754887     4.6645667
H           0.9955063    -4.1357182     4.8834753
27
388_C12H11NO2S_11-12-22-20 (-150,) energy =   -1067.2186272
C          -1.7953447    -2.0043718    -1.0606970
H          -2.8140182    -2.0787226    -1.4310310
C          -1.2533599    -3.0446183    -0.3031255
H          -1.8461056    -3.9286630    -0.0866458
C           0.0557484    -2.9586170     0.1717042
H           0.4974256    -3.7677681     0.7418765
C           0.8062228    -1.8169840    -0.1188648
C           0.2785432    -0.7718789    -0.8818707
H           0.8944073     0.0900124    -1.1163111
C          -1.0296423    -0.8727822    -1.3532884
H          -1.4482114    -0.0710547    -1.9549148
S           2.4786866    -1.6664794     0.5201742
N           2.3495167    -0.9015557     2.0219103
H           2.3560571     0.1066054     1.9098657
O           2.9891901    -3.0176328     0.7460260
O           3.1891080    -0.6843477    -0.2991831
C           0.5793772    -2.2461486     5.6124232
H           0.1331211    -2.5777778     6.5453139
C           0.6027862    -0.8901295     5.2828899
H           0.1725139    -0.1547959     5.9573779
C           1.1688783    -0.4658815     4.0830356
H           1.1724764     0.5914264     3.8265512
C           1.7339412    -1.3966357     3.1983043
C           1.7359479    -2.7576453     3.5370394
H           2.2136929    -3.4753820     2.8819073
C           1.1470986    -3.1686875     4.7327399
H           1.1516982    -4.2261506     4.9835154
27
388_C12H11NO2S_11-12-22-20 (-135,) energy =   -1067.2193925
C          -1.8271738    -1.8936691    -0.9232842
H          -2.8604744    -1.9359240    -1.2563358
C          -1.3048536    -2.9285213    -0.1444151
H          -1.9279347    -3.7760897     0.1260915
C           0.0225733    -2.8842589     0.2823740
H           0.4479472    -3.6901567     0.8695146
C           0.8115254    -1.7888131    -0.0772850
C           0.3033709    -0.7494792    -0.8608468
H           0.9482544     0.0744845    -1.1477164
C          -1.0238523    -0.8090965    -1.2844016
H          -1.4278813    -0.0122693    -1.9022805
S           2.5107556    -1.6921360     0.4988260
N           2.4699535    -0.9240819     2.0134513
H           2.4229898     0.0819357     1.8809884
O           2.9833765    -3.0589830     0.7126196
O           3.2229532    -0.7365423    -0.3501356
C           0.5200381    -2.2857562     5.5046077
H           0.0298819    -2.6249742     6.4125368
C           0.3979441    -0.9584469     5.0914061
H          -0.1910532    -0.2551969     5.6738642
C           1.0190686    -0.5261351     3.9210997
H           0.9071000     0.5055195     3.5945251
C           1.7906205    -1.4160263     3.1607472
C           1.9357278    -2.7448029     3.5851498
H           2.5601331    -3.4228676     3.0161130
C           1.2867840    -3.1703730     4.7436079
H           1.4013141    -4.2027687     5.0630056
27
388_C12H11NO2S_11-12-22-20 (-120,) energy =   -1067.2195633
C          -1.8711485    -1.7826210    -0.8428142
H          -2.9116668    -1.7846091    -1.1555261
C          -1.3915274    -2.8015792    -0.0165647
H          -2.0553798    -3.5963227     0.3112732
C          -0.0555161    -2.8094552     0.3844724
H           0.3365129    -3.6046392     1.0086235
C           0.7859321    -1.7819190    -0.0497536
C           0.3205420    -0.7590572    -0.8798872
H           1.0048074     0.0102719    -1.2218828
C          -1.0164921    -0.7663046    -1.2767732
H          -1.3880632     0.0175003    -1.9306798
S           2.5002422    -1.7543105     0.4887043
N           2.5305788    -0.9632142     1.9981919
H           2.4503561     0.0388910     1.8454716
O           2.9123429    -3.1373277     0.7227761
O           3.2359229    -0.8490000    -0.3949459
C           0.4873829    -2.3509666     5.4252285
H          -0.0263477    -2.7008886     6.3160671
C           0.1890180    -1.0974338     4.8891549
H          -0.5618582    -0.4665297     5.3568921
C           0.8409146    -0.6524952     3.7395779
H           0.5934628     0.3157759     3.3103159
C           1.8216623    -1.4495950     3.1351204
C           2.1361324    -2.7019355     3.6805224
H           2.9068723    -3.3045713     3.2148549
C           1.4562083    -3.1492174     4.8124008
H           1.7019833    -4.1221020     5.2293126
27
388_C12H11NO2S_11-12-22-20 (-105,) energy =   -1067.2188939
C          -1.8898167    -1.6616763    -0.7645271
H          -2.9350145    -1.6224594    -1.0587160
C          -1.4378190    -2.6944745     0.0601121
H          -2.1279683    -3.4588253     0.4054983
C          -0.0961629    -2.7549461     0.4373509
H           0.2749173    -3.5615246     1.0598134
C           0.7794275    -1.7667809    -0.0199486
C           0.3416618    -0.7309225    -0.8491471
H           1.0513218     0.0058793    -1.2105589
C          -1.0018128    -0.6844989    -1.2210918
H          -1.3525063     0.1096301    -1.8740925
S           2.5050841    -1.8133775     0.4810219
N           2.6151458    -1.0075169     1.9830972
H           2.5382975    -0.0064990     1.8159371
O           2.8530084    -3.2111161     0.7309911
O           3.2609149    -0.9592635    -0.4364581
C           0.4804689    -2.3901514     5.3575692
H          -0.0573459    -2.7443809     6.2325242
C           0.0510416    -1.2425417     4.6887925
H          -0.8253272    -0.7023823     5.0363321
C           0.7348590    -0.7931542     3.5591066
H           0.3895547     0.0879832     3.0236243
C           1.8776595    -1.4716054     3.1172357
C           2.3122686    -2.6212640     3.7880483
H           3.1955635    -3.1372661     3.4293861
C           1.6054167    -3.0800109     4.8987070
H           1.9454842    -3.9720988     5.4173492
27
388_C12H11NO2S_11-12-22-20 (-90,) energy =   -1067.2172179
C          -1.9120121    -1.5412069    -0.7448721
H          -2.9560391    -1.4557962    -1.0334634
C          -1.4933185    -2.6175107     0.0406590
H          -2.2082601    -3.3699320     0.3610115
C          -0.1535436    -2.7360407     0.4115228
H           0.1932153    -3.5750454     1.0044836
C           0.7543782    -1.7633919    -0.0140928
C           0.3502045    -0.6856693    -0.8065100
H           1.0837583     0.0370761    -1.1483577
C          -0.9920236    -0.5794730    -1.1705771
H          -1.3169199     0.2481650    -1.7946940
S           2.4804298    -1.8896402     0.4760449
N           2.6589253    -1.0739645     1.9644987
H           2.6209782    -0.0725870     1.7833383
O           2.7555036    -3.3002392     0.7431471
O           3.2663175    -1.0892730    -0.4648770
C           0.4988974    -2.3918854     5.3521696
H          -0.0455662    -2.7348610     6.2276429
C          -0.0494377    -1.4047160     4.5308103
H          -1.0232205    -0.9810575     4.7606671
C           0.6438321    -0.9697362     3.4010380
H           0.2126958    -0.2137711     2.7499871
C           1.9094998    -1.4963589     3.1134165
C           2.4550872    -2.4923890     3.9300153
H           3.4274674    -2.9009425     3.6775589
C           1.7470088    -2.9387575     5.0453034
H           2.1749454    -3.7096334     5.6800160
27
388_C12H11NO2S_11-12-22-20 (-75,) energy =   -1067.2173670
C          -1.9658733    -1.1801755    -1.3021634
H          -2.9212826    -0.9491979    -1.7651158
C          -1.7724051    -2.4183847    -0.6880174
H          -2.5725348    -3.1528602    -0.6745360
C          -0.5460081    -2.7214340    -0.0928145
H          -0.3677862    -3.6800490     0.3819585
C           0.4707108    -1.7669486    -0.1220035
C           0.2948838    -0.5268295    -0.7411512
H           1.1089378     0.1899104    -0.7650529
C          -0.9338144    -0.2368895    -1.3302846
H          -1.0851849     0.7228576    -1.8158231
S           2.0614726    -2.1635149     0.6074864
N           2.1483094    -1.1163621     1.9660153
H           3.0899460    -0.7286235     1.9497491
O           2.0152513    -3.5647748     1.0302662
O           3.1199275    -1.6576570    -0.2734212
C           0.8924742    -2.3524881     5.8085414
H           0.5665837    -2.6565500     6.7991432
C          -0.0467491    -2.0974513     4.8071256
H          -1.1080874    -2.1965656     5.0179375
C           0.3655576    -1.6908079     3.5391837
H          -0.3633234    -1.4581086     2.7695212
C           1.7306796    -1.5679078     3.2562910
C           2.6737636    -1.8323279     4.2557895
H           3.7342697    -1.7465135     4.0317265
C           2.2528345    -2.2103819     5.5302244
H           2.9921278    -2.4068975     6.3017709
27
388_C12H11NO2S_11-12-22-20 (-60,) energy =   -1067.2175958
C          -1.9507513    -1.0465388    -1.3624505
H          -2.8814343    -0.7500164    -1.8381386
C          -1.8418746    -2.3070866    -0.7737716
H          -2.6829066    -2.9941608    -0.7934184
C          -0.6475864    -2.6939692    -0.1619537
H          -0.5346727    -3.6723505     0.2923267
C           0.4227228    -1.7995801    -0.1474553
C           0.3318306    -0.5387689    -0.7423715
H           1.1854356     0.1307694    -0.7338286
C          -0.8654269    -0.1647967    -1.3485082
H          -0.9508779     0.8127880    -1.8140831
S           1.9737975    -2.3074626     0.5999379
N           2.1280795    -1.2648497     1.9511611
H           3.0625575    -0.8657418     1.8987380
O           1.8205642    -3.6975519     1.0311884
O           3.0711859    -1.8814448    -0.2751120
C           0.9686066    -2.3154775     5.8755975
H           0.6691268    -2.5709556     6.8878566
C           0.0412547    -2.3656723     4.8327576
H          -0.9865042    -2.6567738     5.0319642
C           0.4140322    -2.0261878     3.5338317
H          -0.3187447    -2.0370705     2.7338555
C           1.7376350    -1.6591115     3.2626106
C           2.6717618    -1.6176159     4.3046314
H           3.7022106    -1.3408633     4.0936479
C           2.2829647    -1.9322690     5.6060692
H           3.0159476    -1.8895998     6.4070107
27
388_C12H11NO2S_11-12-22-20 (-45,) energy =   -1067.2175333
C          -1.9705679    -0.9197047    -1.3075604
H          -2.8926028    -0.5636832    -1.7585999
C          -1.8803803    -2.2371033    -0.8568725
H          -2.7276118    -2.9090712    -0.9587086
C          -0.6974658    -2.6995228    -0.2760569
H          -0.6006676    -3.7210745     0.0752818
C           0.3807002    -1.8232690    -0.1528051
C           0.3082365    -0.5047079    -0.6094097
H           1.1650465     0.1539545    -0.5140427
C          -0.8778985    -0.0554122    -1.1849929
H          -0.9497087     0.9682496    -1.5408625
S           1.9214117    -2.4337834     0.5363738
N           2.1778645    -1.4238324     1.8872554
H           3.1257794    -1.0632964     1.8167679
O           1.6995694    -3.8199103     0.9498080
O           3.0182960    -2.0604793    -0.3621466
C           0.9491434    -2.2065356     5.8517533
H           0.6353737    -2.3924748     6.8746607
C           0.0871714    -2.4796163     4.7882887
H          -0.9051458    -2.8783035     4.9809015
C           0.4761666    -2.2376297     3.4720851
H          -0.2118477    -2.4369849     2.6584861
C           1.7552080    -1.7323702     3.2074801
C           2.6261417    -1.4656245     4.2722053
H           3.6226993    -1.0795091     4.0694374
C           2.2188991    -1.6929544     5.5854224
H           2.9044711    -1.4763805     6.4001491
27
388_C12H11NO2S_11-12-22-20 (-30,) energy =   -1067.2172414
C          -0.3757710    -2.8810965    -2.0080077
H          -0.7650784    -3.5824048    -2.7407689
C           0.9931082    -2.8415874    -1.7412698
H           1.6716212    -3.5074801    -2.2665105
C           1.4980034    -1.9423721    -0.7995439
H           2.5589504    -1.8886731    -0.5809205
C           0.6129216    -1.0952140    -0.1330720
C          -0.7587752    -1.1162015    -0.3985591
H          -1.4261362    -0.4390158     0.1241130
C          -1.2501057    -2.0190861    -1.3384248
H          -2.3148342    -2.0492069    -1.5508387
S           1.2677306     0.1057964     1.0289702
N           0.4499651    -0.2571511     2.4714367
H           0.0238507     0.5966719     2.8188990
O           2.7036576    -0.1457223     1.1569764
O           0.7450062     1.4314059     0.6862380
C           1.5141369    -3.0205457     5.4819873
H           1.7714529    -3.7298336     6.2629401
C           1.9274707    -3.2359670     4.1669289
H           2.5116861    -4.1177965     3.9181409
C           1.6028801    -2.3345774     3.1539010
H           1.9342907    -2.5216062     2.1399621
C           0.8573252    -1.1885869     3.4587395
C           0.4444776    -0.9661485     4.7803802
H          -0.1334666    -0.0766094     5.0215007
C           0.7680177    -1.8796340     5.7808218
H           0.4380974    -1.6911560     6.7988736
27
388_C12H11NO2S_11-12-22-20 (-15,) energy =   -1067.2169774
C          -0.4377352    -2.9235107    -1.8979658
H          -0.8634335    -3.6432186    -2.5916078
C           0.9411103    -2.8917623    -1.6874961
H           1.5908199    -3.5823177    -2.2172899
C           1.4930315    -1.9695538    -0.7958204
H           2.5623620    -1.9216011    -0.6216837
C           0.6446705    -1.0911517    -0.1223055
C          -0.7368354    -1.1045460    -0.3319936
H          -1.3757841    -0.4030694     0.1942935
C          -1.2753465    -2.0303960    -1.2222395
H          -2.3479950    -2.0543549    -1.3911042
S           1.3553248     0.1359935     0.9783420
N           0.5976174    -0.1752573     2.4560463
H           0.1596478     0.6738223     2.7973939
O           2.7933143    -0.1271561     1.0550440
O           0.8356195     1.4587320     0.6218446
C           1.4407423    -3.0704878     5.4113771
H           1.6399831    -3.8123204     6.1789611
C           2.0314049    -3.1782908     4.1525828
H           2.6993276    -4.0073299     3.9346201
C           1.7876430    -2.2316782     3.1573165
H           2.2758248    -2.3242637     2.1956442
C           0.9333082    -1.1535032     3.4224373
C           0.3388483    -1.0403165     4.6884435
H          -0.3270687    -0.2058007     4.8969606
C           0.5935897    -1.9920626     5.6722240
H           0.1250537    -1.8860949     6.6469508
27
388_C12H11NO2S_11-12-22-20 (0,) energy =   -1067.2169398
C          -0.5978708    -2.9328989    -1.7545931
H          -1.0426277    -3.6778705    -2.4084497
C           0.7625888    -2.9963762    -1.4519216
H           1.3794247    -3.7859742    -1.8711560
C           1.3395597    -2.0410701    -0.6125241
H           2.3982538    -2.0619728    -0.3793285
C           0.5345309    -1.0325529    -0.0835117
C          -0.8271209    -0.9503797    -0.3881729
H          -1.4280027    -0.1417855     0.0151285
C          -1.3908703    -1.9093559    -1.2262327
H          -2.4475646    -1.8559112    -1.4717651
S           1.2625596     0.2115187     0.9876291
N           0.6224969    -0.1132939     2.5087052
H           0.0125326     0.6348014     2.8162152
O           2.7088206    -0.0094875     0.9928511
O           0.6761298     1.5121855     0.6576586
C           1.4778000    -3.1019521     5.3624866
H           1.6812179    -3.8677635     6.1050161
C           2.2040748    -3.0573868     4.1727037
H           2.9842973    -3.7903028     3.9851608
C           1.9584127    -2.0763911     3.2116136
H           2.5576321    -2.0376782     2.3111071
C           0.9588142    -1.1208727     3.4394052
C           0.2241934    -1.1632342     4.6348041
H          -0.5567033    -0.4271316     4.8128331
C           0.4883943    -2.1432420     5.5876459
H          -0.0882453    -2.1564416     6.5086322
27
388_C12H11NO2S_11-12-22-20 (15,) energy =   -1067.2175391
C          -0.6892009    -3.0182020    -1.7231341
H          -1.1591169    -3.7826304    -2.3356115
C           0.5946156    -3.2261910    -1.2158968
H           1.1262440    -4.1476079    -1.4352188
C           1.2061985    -2.2470106    -0.4319586
H           2.2122585    -2.3836623    -0.0523958
C           0.5122782    -1.0659027    -0.1623797
C          -0.7696683    -0.8411354    -0.6717496
H          -1.2742406     0.0983586    -0.4721751
C          -1.3679013    -1.8261491    -1.4555845
H          -2.3608463    -1.6599832    -1.8634043
S           1.2665814     0.1954406     0.8706793
N           0.6999501    -0.0848909     2.4301194
H          -0.1024632     0.4964876     2.6413069
O           2.7116002    -0.0259423     0.8523951
O           0.6631053     1.4824196     0.5227102
C           1.5492018    -3.1069560     5.2517998
H           1.7537963    -3.8792650     5.9872629
C           2.3961113    -2.9272015     4.1581734
H           3.2723193    -3.5593574     4.0407158
C           2.1509388    -1.9355320     3.2080799
H           2.8423010    -1.7803172     2.3897348
C           1.0283936    -1.1071980     3.3482037
C           0.1708839    -1.2883567     4.4448921
H          -0.7052332    -0.6527410     4.5541717
C           0.4371720    -2.2747598     5.3906482
H          -0.2352069    -2.3945575     6.2358888
27
388_C12H11NO2S_11-12-22-20 (30,) energy =   -1067.2184911
C          -0.7321221    -2.9782732    -1.5157957
H          -1.2349601    -3.7391439    -2.1062275
C           0.5349017    -3.2323482    -0.9869131
H           1.0201724    -4.1871208    -1.1676276
C           1.1885471    -2.2579667    -0.2318510
H           2.1816692    -2.4326524     0.1656970
C           0.5528555    -1.0338416    -0.0123101
C          -0.7118640    -0.7638567    -0.5419080
H          -1.1690820     0.2065869    -0.3797324
C          -1.3519416    -1.7451078    -1.2976013
H          -2.3313919    -1.5438648    -1.7219700
S           1.3582777     0.2186750     0.9930832
N           0.8422489    -0.0412198     2.5798206
H          -0.0195422     0.4609079     2.7633666
O           2.7980371    -0.0293952     0.9391803
O           0.7704688     1.5152734     0.6553248
C           1.5745859    -3.2875599     5.1793519
H           1.7533518    -4.1157157     5.8587380
C           2.5189208    -2.9521337     4.2084862
H           3.4439689    -3.5175522     4.1328602
C           2.3094316    -1.8847358     3.3352558
H           3.0663912    -1.6071117     2.6124954
C           1.1222463    -1.1434995     3.4237427
C           0.1661008    -1.4841652     4.3927342
H          -0.7600848    -0.9171395     4.4581327
C           0.3990110    -2.5406264     5.2697903
H          -0.3490445    -2.7840212     6.0194580
27
388_C12H11NO2S_11-12-22-20 (45,) energy =   -1067.2192867
C          -0.8177135    -2.9961630    -1.3761338
H          -1.3478714    -3.7669243    -1.9286545
C           0.4329542    -3.2745862    -0.8205516
H           0.8776946    -4.2580222    -0.9423483
C           1.1223774    -2.2885034    -0.1145227
H           2.1032558    -2.4834517     0.3037542
C           0.5380060    -1.0277205     0.0298805
C          -0.7099704    -0.7339418    -0.5256534
H          -1.1260774     0.2625090    -0.4207402
C          -1.3856425    -1.7277134    -1.2329829
H          -2.3520286    -1.5088579    -1.6781095
S           1.3894529     0.2421027     0.9738452
N           0.9156683     0.0452781     2.5909412
H           0.0236685     0.5056044     2.7443452
O           2.8226974    -0.0358431     0.8968586
O           0.8183612     1.5382969     0.6068433
C           1.5703184    -3.3175345     5.0619217
H           1.7343998    -4.1736601     5.7097815
C           2.5963626    -2.8463033     4.2408116
H           3.5678478    -3.3332339     4.2525605
C           2.4053520    -1.7387261     3.4153158
H           3.2137935    -1.3539481     2.8057140
C           1.1556632    -1.1027503     3.3918923
C           0.1197196    -1.5803928     4.2071901
H          -0.8523569    -1.0925253     4.1839393
C           0.3329497    -2.6723385     5.0462516
H          -0.4769659    -3.0242872     5.6794421
27
388_C12H11NO2S_11-12-22-20 (60,) energy =   -1067.2195934
C          -0.9179290    -3.0100497    -1.2880793
H          -1.4824741    -3.7761656    -1.8123134
C           0.3061706    -3.3305107    -0.6965890
H           0.6954673    -4.3424126    -0.7620770
C           1.0397961    -2.3511649    -0.0268915
H           2.0011420    -2.5798110     0.4192564
C           0.5263510    -1.0535895     0.0444976
C          -0.6944190    -0.7182053    -0.5464055
H          -1.0539071     0.3041982    -0.4965300
C          -1.4149426    -1.7063943    -1.2168748
H          -2.3603937    -1.4559275    -1.6895128
S           1.4377847     0.2117014     0.9376362
N           0.9824725     0.0835689     2.5741259
H           0.0707546     0.5159275     2.6982207
O           2.8576330    -0.1278139     0.8592827
O           0.9140118     1.5164706     0.5317221
C           1.5965723    -3.3439623     4.9654614
H           1.7550238    -4.2153598     5.5943226
C           2.6792834    -2.7194948     4.3417076
H           3.6857153    -3.1017788     4.4890826
C           2.4906407    -1.5887976     3.5483308
H           3.3295200    -1.0838434     3.0844287
C           1.1946936    -1.0922382     3.3500811
C           0.1054805    -1.7230607     3.9653808
H          -0.8998631    -1.3395418     3.8061707
C           0.3101978    -2.8353114     4.7809652
H          -0.5408207    -3.3100676     5.2616154
27
388_C12H11NO2S_11-12-22-20 (75,) energy =   -1067.2190236
C          -1.0315504    -2.9882419    -1.1969698
H          -1.6338297    -3.7428559    -1.6952953
C           0.1892832    -3.3433202    -0.6185966
H           0.5382360    -4.3707407    -0.6681904
C           0.9710395    -2.3790386     0.0177988
H           1.9307015    -2.6341351     0.4533739
C           0.5098477    -1.0610897     0.0681613
C          -0.7069778    -0.6913033    -0.5104205
H          -1.0247439     0.3455793    -0.4789112
C          -1.4769250    -1.6650290    -1.1464180
H          -2.4198515    -1.3882666    -1.6093797
S           1.4901736     0.1873211     0.9115014
N           1.0652896     0.1261941     2.5648396
H           0.1490447     0.5548221     2.6771389
O           2.8913700    -0.2208723     0.8259255
O           1.0180269     1.5008659     0.4710932
C           1.6238986    -3.3392253     4.9159673
H           1.7710748    -4.2183132     5.5370593
C           2.7213788    -2.5798763     4.5022549
H           3.7251593    -2.8649147     4.8050092
C           2.5388132    -1.4387073     3.7227804
H           3.3786312    -0.8272695     3.4130467
C           1.2474268    -1.0719068     3.3236224
C           0.1462474    -1.8355398     3.7302097
H          -0.8550145    -1.5471671     3.4189602
C           0.3361050    -2.9591111     4.5348157
H          -0.5235825    -3.5416017     4.8545185
27
388_C12H11NO2S_11-12-22-20 (90,) energy =   -1067.2173859
C          -1.1423516    -2.9620259    -1.1507850
H          -1.7843594    -3.6972712    -1.6280850
C           0.0940782    -3.3510706    -0.6304407
H           0.4159117    -4.3858731    -0.7045389
C           0.9254758    -2.4114174    -0.0202388
H           1.8972239    -2.6914346     0.3710809
C           0.4994315    -1.0834102     0.0610846
C          -0.7318680    -0.6793280    -0.4616524
H          -1.0224530     0.3648756    -0.4114207
C          -1.5527801    -1.6288457    -1.0699092
H          -2.5078987    -1.3254687    -1.4891548
S           1.5486870     0.1339785     0.8687173
N           1.1601765     0.1271616     2.5310996
H           0.2564581     0.5820955     2.6470441
O           2.9274168    -0.3412685     0.7673378
O           1.1266061     1.4576267     0.4070992
C           1.6315968    -3.3243374     4.9263396
H           1.7563675    -4.1974327     5.5608459
C           2.7000769    -2.4474589     4.7238887
H           3.6568399    -2.6341597     5.2035327
C           2.5388040    -1.3163412     3.9248907
H           3.3505269    -0.6141376     3.7691543
C           1.3112893    -1.0769755     3.2978995
C           0.2387380    -1.9541136     3.5001819
H          -0.7163305    -1.7593569     3.0191014
C           0.4000043    -3.0721868     4.3190265
H          -0.4363379    -3.7472968     4.4780526
27
388_C12H11NO2S_11-12-22-20 (105,) energy =   -1067.2173242
C          -1.5096588    -2.7437723    -1.5037242
H          -2.3831776    -3.0988469    -2.0435294
C          -0.6876423    -3.6532082    -0.8365807
H          -0.9166749    -4.7147713    -0.8583067
C           0.4373405    -3.2028416    -0.1425146
H           1.0970838    -3.8903094     0.3753774
C           0.7166170    -1.8363151    -0.1277566
C          -0.0916169    -0.9149898    -0.7985943
H           0.1599468     0.1402194    -0.7854651
C          -1.2113567    -1.3776220    -1.4864200
H          -1.8488070    -0.6734522    -2.0132857
S           2.1787253    -1.2532017     0.7331731
N           1.5301527    -0.3897509     2.0720334
H           2.0825047     0.4638088     2.1357681
O           2.9255889    -2.4302689     1.1820573
O           2.8096160    -0.2008413    -0.0710122
C           0.9123075    -2.2871362     5.7997888
H           0.7432269    -2.7672133     6.7594580
C           1.9868714    -1.4120441     5.6323441
H           2.6614939    -1.2109779     6.4599352
C           2.2125699    -0.8049062     4.3974798
H           3.0645028    -0.1439334     4.2581554
C           1.3436664    -1.0487508     3.3280361
C           0.2569063    -1.9136714     3.4986675
H          -0.4273219    -2.0798742     2.6728785
C           0.0539598    -2.5396021     4.7276777
H          -0.7895681    -3.2130970     4.8524050
27
388_C12H11NO2S_11-12-22-20 (120,) energy =   -1067.2175776
C          -1.5729827    -2.6428275    -1.6038579
H          -2.4640205    -2.9360094    -2.1520422
C          -0.7854604    -3.6149227    -0.9855968
H          -1.0583378    -4.6640327    -1.0541507
C           0.3616365    -3.2436307    -0.2808124
H           0.9954543    -3.9811829     0.1993734
C           0.6976566    -1.8919756    -0.2046768
C          -0.0754427    -0.9087418    -0.8272948
H           0.2183657     0.1339306    -0.7681196
C          -1.2176640    -1.2924931    -1.5263604
H          -1.8287557    -0.5389062    -2.0146258
S           2.1947851    -1.4125057     0.6617536
N           1.6145673    -0.5105024     1.9979399
H           2.1598300     0.3485199     2.0170325
O           2.8569249    -2.6390665     1.1085483
O           2.8928445    -0.4028507    -0.1412565
C           0.9656556    -2.1828339     5.8236556
H           0.7898059    -2.6027936     6.8097599
C           1.8823131    -1.1444141     5.6543894
H           2.4280418    -0.7517489     6.5079504
C           2.1191021    -0.6145396     4.3866626
H           2.8516729     0.1781967     4.2536202
C           1.4166071    -1.1030096     3.2786526
C           0.4847405    -2.1337854     3.4486905
H          -0.0772038    -2.4991320     2.5954805
C           0.2752670    -2.6767491     4.7148320
H          -0.4449925    -3.4812182     4.8363156
27
388_C12H11NO2S_11-12-22-20 (135,) energy =   -1067.2175730
C          -1.6628067    -2.5386171    -1.5880526
H          -2.5790739    -2.7754814    -2.1216244
C          -0.8698073    -3.5666537    -1.0770492
H          -1.1635376    -4.6032974    -1.2142313
C           0.3089120    -3.2672552    -0.3903537
H           0.9458885    -4.0489797     0.0090732
C           0.6712256    -1.9307252    -0.2235172
C          -0.1075475    -0.8914893    -0.7390406
H           0.2032580     0.1397561    -0.6086374
C          -1.2816943    -1.2034912    -1.4203371
H          -1.8984607    -0.4055853    -1.8236158
S           2.2144676    -1.5454504     0.6083470
N           1.7205640    -0.6185572     1.9537037
H           2.2749731     0.2335928     1.9494915
O           2.8115357    -2.8112980     1.0354732
O           2.9536316    -0.5745858    -0.2048134
C           0.9217390    -2.1099344     5.8235059
H           0.7077823    -2.4798268     6.8219137
C           1.7014644    -0.9663278     5.6471382
H           2.1018176    -0.4379961     6.5080999
C           1.9865772    -0.4984307     4.3656322
H           2.6089896     0.3837809     4.2330961
C           1.4749498    -1.1620955     3.2429553
C           0.6796931    -2.3015132     3.4173454
H           0.2637556    -2.8132369     2.5567123
C           0.4193403    -2.7731993     4.7025149
H          -0.1923171    -3.6628557     4.8255054
27
388_C12H11NO2S_11-12-22-20 (150,) energy =   -1067.2173025
C          -1.6158148    -2.4369909    -1.5239105
H          -2.5516515    -2.6274136    -2.0418738
C          -0.8260617    -3.5054727    -1.0982179
H          -1.1418868    -4.5275814    -1.2859271
C           0.3771728    -3.2652759    -0.4312655