27
388_C12H11NO2S_6-11-12-22 (-165,) energy =   -1067.2163212
C          -0.8690540    -1.3193632    -2.4110256
H          -1.2694902    -0.9472099    -3.3499954
C          -1.4296135    -2.4502745    -1.8157649
H          -2.2625771    -2.9609466    -2.2902091
C          -0.9186788    -2.9325467    -0.6089302
H          -1.3308110    -3.8144190    -0.1304731
C           0.1520895    -2.2635612    -0.0163479
C           0.7298499    -1.1354858    -0.6049385
H           1.5697642    -0.6420642    -0.1275715
C           0.2089805    -0.6637666    -1.8077700
H           0.6457366     0.2129392    -2.2771670
S           0.8351807    -2.9010249     1.5154350
N           0.3883997    -1.6145937     2.5747496
H          -0.6285483    -1.6283649     2.6483838
O           0.1089841    -4.1320805     1.8521169
O           2.2970481    -2.8951696     1.4432116
C           2.1597717    -1.2173596     6.3968084
H           2.6096340    -1.0956499     7.3780222
C           0.7988364    -1.5009761     6.2784549
H           0.1809532    -1.6050995     7.1661298
C           0.2248310    -1.6695187     5.0188525
H          -0.8315846    -1.9124802     4.9288493
C           1.0060561    -1.5272130     3.8657178
C           2.3698091    -1.2290337     3.9801039
H           2.9694095    -1.1168853     3.0852678
C           2.9388884    -1.0897105     5.2446172
H           3.9989153    -0.8658367     5.3273932
27
388_C12H11NO2S_6-11-12-22 (-150,) energy =   -1067.2160045
C          -0.7653639    -1.2486741    -2.3813555
H          -1.0864225    -0.8209617    -3.3270819
C          -1.4777185    -2.3099620    -1.8214076
H          -2.3492749    -2.7119793    -2.3298950
C          -1.0687982    -2.8646173    -0.6069442
H          -1.5979202    -3.6992782    -0.1599966
C           0.0539975    -2.3372651     0.0305135
C           0.7823433    -1.2813285    -0.5226957
H           1.6629543    -0.9022985    -0.0149968
C           0.3639275    -0.7367548    -1.7346714
H           0.9208537     0.0839747    -2.1773924
S           0.5970005    -3.0595268     1.5812765
N           0.1069579    -1.8365248     2.6921118
H          -0.8880229    -1.9698741     2.8659182
O          -0.2010911    -4.2707880     1.8075807
O           2.0590477    -3.0955930     1.6034111
C           2.1919387    -1.0926258     6.2972848
H           2.7186694    -0.8825258     7.2237600
C           0.8891383    -1.5906925     6.3272459
H           0.3940548    -1.7745445     7.2768162
C           0.2184690    -1.8724056     5.1373968
H          -0.7889384    -2.2816504     5.1625393
C           0.8388378    -1.6296677     3.9058113
C           2.1412161    -1.1168647     3.8729942
H           2.6183048    -0.9277062     2.9190611
C           2.8134266    -0.8648800     5.0672314
H           3.8268431    -0.4743500     5.0341265
27
388_C12H11NO2S_6-11-12-22 (-135,) energy =   -1067.2159327
C          -0.6310690    -1.1530856    -2.3241347
H          -0.9067246    -0.6606658    -3.2525177
C          -1.5051369    -2.0708847    -1.7379878
H          -2.4567727    -2.2971129    -2.2102599
C          -1.1556580    -2.7094613    -0.5476810
H          -1.8115860    -3.4423746    -0.0902834
C           0.0723189    -2.4094361     0.0435390
C           0.9614060    -1.5032980    -0.5371782
H           1.9226411    -1.3137051    -0.0715187
C           0.6010283    -0.8732461    -1.7276202
H           1.2851587    -0.1692275    -2.1925533
S           0.5297014    -3.2232344     1.5770705
N          -0.0610124    -2.1255061     2.7661487
H          -0.9853088    -2.4560141     3.0356858
O          -0.2790111    -4.4437032     1.6800543
O           1.9886846    -3.2445747     1.6700924
C           2.2060296    -0.9433309     6.1341984
H           2.7774315    -0.6239127     7.0009911
C           1.0361598    -1.6856132     6.2974733
H           0.6905067    -1.9514669     7.2926789
C           0.3102541    -2.1069569     5.1836535
H          -0.5893358    -2.7046444     5.3120252
C           0.7368804    -1.7628316     3.8952633
C           1.9020713    -1.0049059     3.7300945
H           2.2260301    -0.7294908     2.7331579
C           2.6360533    -0.6122412     4.8471145
H           3.5435481    -0.0307244     4.7096851
27
388_C12H11NO2S_6-11-12-22 (-120,) energy =   -1067.2165298
C          -0.4686780    -1.0120437    -2.1749488
H          -0.6903879    -0.4489062    -3.0772143
C          -1.4564994    -1.8117686    -1.5939900
H          -2.4426147    -1.8746522    -2.0450665
C          -1.1785301    -2.5397028    -0.4379569
H          -1.9283094    -3.1817564     0.0118878
C           0.0951060    -2.4489870     0.1268955
C           1.0954146    -1.6647967    -0.4485936
H           2.0844774    -1.6408606    -0.0036870
C           0.8046189    -0.9422455    -1.6065905
H           1.5755108    -0.3312053    -2.0672455
S           0.4631298    -3.3790586     1.6178027
N          -0.1950689    -2.3967116     2.8681190
H          -1.0125071    -2.8919313     3.2174357
O          -0.3764464    -4.5826861     1.6005781
O           1.9162088    -3.4364125     1.7688512
C           2.1371118    -0.7551176     5.9864662
H           2.7248961    -0.3208960     6.7900278
C           1.1247634    -1.6717218     6.2719807
H           0.9199367    -1.9588290     7.2996878
C           0.3787272    -2.2400729     5.2398120
H          -0.3952368    -2.9709994     5.4626718
C           0.6245332    -1.8724700     3.9116976
C           1.6284677    -0.9402361     3.6246782
H           1.8048081    -0.6404837     2.5973307
C           2.3874078    -0.3983753     4.6593835
H           3.1697411     0.3189562     4.4269720
27
388_C12H11NO2S_6-11-12-22 (-105,) energy =   -1067.2173940
C          -0.3520752    -0.8581688    -2.0014378
H          -0.5396587    -0.2261310    -2.8649730
C          -1.4136509    -1.5322003    -1.3899326
H          -2.4225453    -1.4272607    -1.7783869
C          -1.1812931    -2.3468818    -0.2838581
H          -1.9932474    -2.8878455     0.1905051
C           0.1225677    -2.4699598     0.2019338
C           1.1933668    -1.8123985    -0.4035188
H           2.1966147    -1.9502829    -0.0149205
C           0.9471595    -1.0000183    -1.5123146
H           1.7723406    -0.4845160    -1.9951625
S           0.4380489    -3.5357098     1.6115308
N          -0.2555541    -2.6792884     2.9270391
H          -0.9392726    -3.3071735     3.3437453
O          -0.4191669    -4.7195532     1.4835630
O           1.8879350    -3.6347923     1.7782323
C           2.0187424    -0.5676609     5.7935417
H           2.5918198    -0.0160741     6.5331176
C           1.1647375    -1.5975461     6.1895518
H           1.0695660    -1.8558494     7.2406531
C           0.4393595    -2.3155123     5.2394756
H          -0.2088585    -3.1321043     5.5493092
C           0.5444095    -1.9890662     3.8822499
C           1.3875569    -0.9447978     3.4840997
H           1.4534831    -0.6748757     2.4353081
C           2.1289103    -0.2508404     4.4378332
H           2.7865432     0.5530790     4.1186312
27
388_C12H11NO2S_6-11-12-22 (-90,) energy =   -1067.2174875
C          -0.2381947    -0.6766109    -1.8102658
H          -0.4229428     0.0205945    -2.6227705
C          -1.3113487    -1.1797661    -1.0680868
H          -2.3271494    -0.8754064    -1.3031172
C          -1.0821155    -2.0754944    -0.0261497
H          -1.9061161    -2.4755258     0.5552346
C           0.2317608    -2.4511720     0.2660769
C           1.3117968    -1.9630963    -0.4696226
H           2.3174158    -2.2838849    -0.2206391
C           1.0679530    -1.0676467    -1.5131167
H           1.8999424    -0.6793520    -2.0933896
S           0.5400825    -3.6587167     1.5576418
N          -0.1592001    -2.9445121     2.9411477
H          -0.7173669    -3.6619336     3.3970934
O          -0.3116945    -4.8302466     1.3291255
O           1.9915272    -3.7819831     1.7021323
C           1.8337230    -0.3628428     5.6253931
H           2.3327352     0.3052075     6.3211816
C           1.1057630    -1.4555657     6.0978138
H           1.0347398    -1.6470380     7.1650315
C           0.4766396    -2.3215454     5.2052059
H          -0.0729989    -3.1837084     5.5763033
C           0.5496645    -2.0872327     3.8260476
C           1.2675407    -0.9830963     3.3501943
H           1.3162663    -0.7834394     2.2854391
C           1.9138790    -0.1376176     4.2499474
H           2.4748307     0.7115638     3.8691843
27
388_C12H11NO2S_6-11-12-22 (-75,) energy =   -1067.2189118
C          -0.9223069    -0.4915149    -1.3314144
H          -1.4273538     0.2549259    -1.9382320
C          -1.4466114    -1.7826759    -1.2370236
H          -2.3544869    -2.0435513    -1.7734679
C          -0.8017103    -2.7462457    -0.4609912
H          -1.1829802    -3.7593312    -0.3898029
C           0.3712682    -2.3979987     0.2126835
C           0.9117630    -1.1122875     0.1201999
H           1.8374153    -0.8747993     0.6332766
C           0.2547166    -0.1583146    -0.6563110
H           0.6667015     0.8432552    -0.7398440
S           1.1847005    -3.6202073     1.2493580
N           0.6405295    -3.3350292     2.8319504
H          -0.3408611    -3.5828635     2.9173089
O           0.6236373    -4.9263326     0.9052266
O           2.6206041    -3.3480635     1.2339943
C           1.8760493    -0.1751317     5.3467006
H           2.1890522     0.6281352     6.0075464
C           0.5232608    -0.3610001     5.0587103
H          -0.2247985     0.2986012     5.4900359
C           0.1232444    -1.3851374     4.2013981
H          -0.9291810    -1.5163032     3.9599571
C           1.0750076    -2.2528137     3.6484152
C           2.4329025    -2.0809214     3.9509205
H           3.1621331    -2.7632189     3.5326251
C           2.8232581    -1.0340762     4.7846434
H           3.8778644    -0.9033921     5.0115101
27
388_C12H11NO2S_6-11-12-22 (-60,) energy =   -1067.2195979
C          -0.7812523    -0.3266836    -1.1419795
H          -1.2426023     0.4824470    -1.7013613
C          -1.4423856    -1.5510179    -1.0170147
H          -2.4127276    -1.6980476    -1.4826788
C          -0.8546323    -2.5937061    -0.3012482
H          -1.3435046    -3.5579017    -0.2096933
C           0.3998389    -2.3932565     0.2803590
C           1.0765216    -1.1772512     0.1554395
H           2.0597144    -1.0551621     0.5957827
C           0.4745982    -0.1415440    -0.5592733
H           0.9912409     0.8078565    -0.6664795
S           1.1412591    -3.7263413     1.2302794
N           0.6995195    -3.4773667     2.8569701
H          -0.2568856    -3.7954159     2.9901781
O           0.4592667    -4.9707051     0.8719243
O           2.5927202    -3.5709300     1.1503948
C           1.6932970    -0.0433363     5.1071046
H           1.9484182     0.8303086     5.7000312
C           0.3585893    -0.4163252     4.9429331
H          -0.4336026     0.1673092     5.4038386
C           0.0306411    -1.5317982     4.1733076
H          -1.0110444    -1.8100992     4.0296751
C           1.0422682    -2.3014922     3.5842204
C           2.3853744    -1.9412480     3.7626679
H           3.1628520    -2.5529377     3.3206877
C           2.6990085    -0.8066694     4.5095729
H           3.7416560    -0.5305844     4.6416776
27
388_C12H11NO2S_6-11-12-22 (-45,) energy =   -1067.2186690
C          -0.6176048    -0.2216677    -0.9296449
H          -1.0426287     0.6306444    -1.4525141
C          -1.4071237    -1.3461875    -0.6757576
H          -2.4416216    -1.3726485    -1.0059293
C          -0.8660218    -2.4432109    -0.0067201
H          -1.4572203    -3.3341715     0.1783917
C           0.4700427    -2.3975929     0.4002164
C           1.2732588    -1.2844845     0.1439730
H           2.3138163    -1.2875773     0.4467846
C           0.7181325    -0.1924081    -0.5237064
H           1.3328742     0.6783995    -0.7323219
S           1.1569122    -3.8094974     1.2752647
N           0.8343264    -3.5810788     2.9393289
H          -0.0709759    -4.0009107     3.1376475
O           0.3758208    -5.0000876     0.9340017
O           2.6086183    -3.7497785     1.1061639
C           1.4633536     0.0829520     4.9439149
H           1.6289906     1.0169713     5.4730351
C           0.1898053    -0.4867587     4.9066978
H          -0.6433777     0.0028832     5.4033668
C          -0.0268652    -1.6807806     4.2198192
H          -1.0237910    -2.1137878     4.1767945
C           1.0408182    -2.3286506     3.5863742
C           2.3249819    -1.7692969     3.6372681
H           3.1497477    -2.2926173     3.1659444
C           2.5243038    -0.5607946     4.3026762
H           3.5217803    -0.1310668     4.3371111
27
388_C12H11NO2S_6-11-12-22 (-30,) energy =   -1067.2162094
C          -0.4999687    -0.1599513    -0.7766720
H          -0.8687959     0.7296128    -1.2797406
C          -1.4003231    -1.1373554    -0.3448434
H          -2.4655921    -1.0132084    -0.5168553
C          -0.9319509    -2.2817467     0.2987044
H          -1.6154340    -3.0622364     0.6172696
C           0.4422581    -2.4301466     0.5035414
C           1.3534867    -1.4667993     0.0680267
H           2.4155958    -1.6246024     0.2148325
C           0.8716123    -0.3258081    -0.5742901
H           1.5698371     0.4302833    -0.9215306
S           1.0390615    -3.9151216     1.3224219
N           0.8893383    -3.6637802     3.0187311
H           0.0492134    -4.1630176     3.3040354
O           0.1155493    -5.0218790     1.0558177
O           2.4674983    -4.0095441     1.0202748
C           1.2310307     0.1370299     4.8266703
H           1.3263023     1.1080076     5.3040253
C           0.0362617    -0.5780541     4.9225936
H          -0.8050601    -0.1654884     5.4726728
C          -0.0927718    -1.8204219     4.3023475
H          -1.0301453    -2.3687923     4.3646167
C           0.9884365    -2.3683213     3.6017052
C           2.1958987    -1.6616947     3.5207002
H           3.0377423    -2.1121608     3.0046521
C           2.3056240    -0.4083917     4.1200702
H           3.2439679     0.1353419     4.0518948
27
388_C12H11NO2S_6-11-12-22 (-15,) energy =   -1067.2130536
C          -0.2952475    -0.1064892    -0.7613466
H          -0.6167434     0.8116680    -1.2451466
C          -1.2400868    -0.9436476    -0.1619656
H          -2.2937839    -0.6811356    -0.1834959
C          -0.8334238    -2.1246337     0.4565910
H          -1.5576023    -2.7974578     0.9043565
C           0.5255700    -2.4480953     0.4704138
C           1.4789837    -1.6270648    -0.1327603
H           2.5220247    -1.9225871    -0.1286671
C           1.0583496    -0.4489318    -0.7506453
H           1.7887377     0.1979778    -1.2279198
S           1.0452671    -3.9901710     1.2325899
N           1.0655786    -3.7321928     2.9457424
H           0.3311784    -4.3390828     3.3061720
O           0.0074397    -5.0104843     1.0428920
O           2.4242092    -4.2218961     0.8021488
C           1.0097517     0.0821331     4.7576250
H           1.0053586     1.0574487     5.2355962
C          -0.0579768    -0.7968445     4.9456560
H          -0.8996844    -0.5086715     5.5694923
C          -0.0606238    -2.0457150     4.3246845
H          -0.9009203    -2.7230823     4.4601840
C           1.0243983    -2.4343315     3.5289801
C           2.1076747    -1.5621474     3.3579415
H           2.9624020    -1.8879075     2.7733751
C           2.0882340    -0.3051293     3.9586184
H           2.9306048     0.3667625     3.8184002
27
388_C12H11NO2S_6-11-12-22 (0,) energy =   -1067.2103918
C          -1.5470236    -2.8682816    -0.4372199
H          -2.5219766    -3.3164459    -0.6077327
C          -0.3956554    -3.6521265    -0.5368299
H          -0.4725002    -4.7059056    -0.7886360
C           0.8597283    -3.0831221    -0.3207106
H           1.7693169    -3.6667052    -0.4103491
C           0.9376218    -1.7264303    -0.0036042
C          -0.2039324    -0.9265876     0.0852776
H          -0.1111179     0.1323614     0.3019235
C          -1.4521153    -1.5083217    -0.1301483
H          -2.3490285    -0.8992068    -0.0660001
S           2.5519946    -0.9742448     0.2202687
N           2.7992409    -0.8279235     1.9381678
H           3.0430202     0.1541327     2.0616852
O           3.5416129    -1.9217129    -0.2925999
O           2.5203190     0.4109128    -0.2692913
C           0.0463419    -2.1083656     4.8776368
H          -0.6476390    -2.4401097     5.6445234
C           0.2709674    -0.7456598     4.6762649
H          -0.2485763    -0.0099092     5.2841140
C           1.1532894    -0.3168305     3.6848479
H           1.3144733     0.7459265     3.5184404
C           1.8404963    -1.2543508     2.9023674
C           1.6334738    -2.6226400     3.1214159
H           2.1991100    -3.3443417     2.5408162
C           0.7278801    -3.0423657     4.0935965
H           0.5706738    -4.1055323     4.2536104
27
388_C12H11NO2S_6-11-12-22 (15,) energy =   -1067.2130516
C          -1.6176495    -2.7429240    -0.4654608
H          -2.6114401    -3.1428269    -0.6468039
C          -0.5209621    -3.6053394    -0.4089298
H          -0.6590840    -4.6734300    -0.5498384
C           0.7585175    -3.0990327    -0.1781600
H           1.6269489    -3.7473107    -0.1497059
C           0.9168233    -1.7235636    -0.0048356
C          -0.1694029    -0.8475333    -0.0711714
H          -0.0138503     0.2212513     0.0341104
C          -1.4426160    -1.3664418    -0.3002122
H          -2.2956691    -0.6966353    -0.3579679
S           2.5631166    -1.0502787     0.2508402
N           2.7189363    -0.7095343     1.9424424
H           2.7995489     0.3045663     1.9942059
O           3.5048761    -2.1215015    -0.0747571
O           2.6625167     0.2691164    -0.3843144
C           0.1371333    -2.2554400     4.9056748
H          -0.5139572    -2.6542740     5.6781728
C           0.1797736    -0.8815719     4.6633712
H          -0.4399076    -0.2046283     5.2451126
C           1.0067067    -0.3673763     3.6648489
H           1.0266730     0.7021700     3.4674998
C           1.8202684    -1.2279605     2.9172066
C           1.7956483    -2.6050347     3.1748292
H           2.4595866    -3.2594372     2.6186032
C           0.9448380    -3.1126810     4.1544938
H           0.9291472    -4.1821262     4.3460841
27
388_C12H11NO2S_6-11-12-22 (30,) energy =   -1067.2162091
C          -1.6943314    -2.5513804    -0.5178512
H          -2.6981918    -2.9084509    -0.7304609
C          -0.6782989    -3.4651365    -0.2307961
H          -0.8885662    -4.5307358    -0.2230963
C           0.6143166    -3.0153532     0.0401682
H           1.4214777    -3.7094455     0.2432419
C           0.8677062    -1.6429395     0.0215648
C          -0.1370900    -0.7179836    -0.2739459
H           0.0948328     0.3414189    -0.3150935
C          -1.4241189    -1.1806905    -0.5434237
H          -2.2127704    -0.4728889    -0.7818272
S           2.5278192    -1.0390097     0.3550277
N           2.5822076    -0.5669498     2.0096617
H           2.4961718     0.4474681     2.0154758
O           3.4249235    -2.1842242     0.1990505
O           2.7421578     0.2178201    -0.3683547
C           0.2693060    -2.4250014     5.0147122
H          -0.3134976    -2.9013304     5.7977733
C           0.0896502    -1.0701029     4.7319895
H          -0.6358913    -0.4860617     5.2915609
C           0.8290508    -0.4578801     3.7204270
H           0.6756737     0.5942973     3.4909797
C           1.7763050    -1.1962388     3.0008788
C           1.9731177    -2.5519255     3.2962108
H           2.7345249    -3.1051621     2.7557228
C           1.2093600    -3.1614281     4.2897904
H           1.3653683    -4.2134706     4.5126066
27
388_C12H11NO2S_6-11-12-22 (45,) energy =   -1067.2186693
C          -1.7506786    -2.4715430    -0.6951517
H          -2.7651681    -2.7695669    -0.9450272
C          -0.8643157    -3.4067000    -0.1569326
H          -1.1858257    -4.4308136     0.0091348
C           0.4416592    -3.0336565     0.1621835
H           1.1489601    -3.7518089     0.5602174
C           0.8400017    -1.7141576    -0.0616405
C          -0.0344606    -0.7700326    -0.6063521
H           0.3120431     0.2401803    -0.7986287
C          -1.3357809    -1.1570027    -0.9236175
H          -2.0222933    -0.4350388    -1.3565028
S           2.5117876    -1.2045554     0.3582574
N           2.4699721    -0.5947941     1.9559153
H           2.2669870     0.4005826     1.8998311
O           3.3325631    -2.4150593     0.3809928
O           2.8634904    -0.0334196    -0.4473268
C           0.4775609    -2.5405138     5.1311901
H          -0.0234825    -3.0353887     5.9581477
C           0.1131236    -1.2444819     4.7632897
H          -0.6763707    -0.7251982     5.2996279
C           0.7485524    -0.6112194     3.6957323
H           0.4507824     0.3920113     3.3989633
C           1.7763299    -1.2646019     3.0046028
C           2.1580882    -2.5591177     3.3829812
H           2.9730199    -3.0458537     2.8583780
C           1.4965319    -3.1931645     4.4333401
H           1.7955635    -4.1974952     4.7209376
27
388_C12H11NO2S_6-11-12-22 (60,) energy =   -1067.2195977
C          -1.8162022    -2.3429079    -0.9440802
H          -2.8274910    -2.6001244    -1.2467092
C          -1.0622869    -3.2511726    -0.1973867
H          -1.4834132    -4.2136058     0.0785945
C           0.2389885    -2.9312875     0.1901079
H           0.8435881    -3.6342277     0.7520510
C           0.7671973    -1.6907184    -0.1763755
C           0.0256966    -0.7748561    -0.9269751
H           0.4732234     0.1693916    -1.2187774
C          -1.2723661    -1.1097017    -1.3117168
H          -1.8553927    -0.4105734    -1.9044273
S           2.4273357    -1.2446174     0.3473819
N           2.2877821    -0.5669253     1.9043890
H           1.9615228     0.3920501     1.8173601
O           3.1945495    -2.4815451     0.4843677
O           2.8767981    -0.1240959    -0.4797885
C           0.7469862    -2.6017529     5.2700761
H           0.3600424    -3.1146959     6.1458861
C           0.1684976    -1.4052364     4.8443298
H          -0.6745263    -0.9819695     5.3835930
C           0.6581773    -0.7516617     3.7142144
H           0.1939044     0.1704769     3.3717444
C           1.7530788    -1.2783653     3.0166744
C           2.3490532    -2.4701136     3.4525866
H           3.2078840    -2.8598987     2.9192737
C           1.8317440    -3.1301596     4.5662737
H           2.2959318    -4.0551913     4.8974193
27
388_C12H11NO2S_6-11-12-22 (75,) energy =   -1067.2189119
C          -1.8168626    -2.1955463    -1.1932591
H          -2.8171123    -2.3973609    -1.5664197
C          -1.2044441    -3.0988079    -0.3207743
H          -1.7248998    -4.0028982    -0.0181374
C           0.0813010    -2.8491377     0.1580729
H           0.5778476    -3.5510906     0.8192884
C           0.7389037    -1.6836908    -0.2457475
C           0.1406388    -0.7748135    -1.1214690
H           0.6872120     0.1080139    -1.4355355
C          -1.1447542    -1.0390612    -1.5953757
H          -1.6172458    -0.3447052    -2.2843419
S           2.3768520    -1.3294765     0.4036972
N           2.1375067    -0.6054677     1.9204084
H           1.7331529     0.3197693     1.8096152
O           3.0589024    -2.6006928     0.6381372
O           2.9504199    -0.2640858    -0.4179406
C           1.0095310    -2.5988495     5.4686614
H           0.7264298    -3.0984320     6.3907209
C           0.2531877    -1.5287042     4.9888095
H          -0.6254350    -1.1912066     5.5317899
C           0.6105424    -0.8952398     3.7993264
H           0.0084669    -0.0752813     3.4142677
C           1.7491552    -1.3099102     3.0949653
C           2.5220675    -2.3720155     3.5842993
H           3.4087375    -2.6783100     3.0436605
C           2.1368739    -3.0175937     4.7582801
H           2.7377498    -3.8432398     5.1297669
27
388_C12H11NO2S_6-11-12-22 (90,) energy =   -1067.2174876
C          -1.4918340    -2.6582360    -1.4991204
H          -2.3588569    -3.0269151    -2.0401792
C          -0.4557645    -3.5320510    -1.1670177
H          -0.5123239    -4.5790604    -1.4503104
C           0.6608261    -3.0635436    -0.4713791
H           1.4801031    -3.7217477    -0.2035200
C           0.7158962    -1.7161005    -0.1145182
C          -0.3096647    -0.8277278    -0.4488274
H          -0.2388596     0.2176616    -0.1673942
C          -1.4189356    -1.3084078    -1.1407993
H          -2.2257936    -0.6301123    -1.4027331
S           2.1853815    -1.1001513     0.7115314
N           1.5697045    -0.3921544     2.1363139
H           2.0048160     0.5222958     2.2281866
O           3.0301624    -2.2559029     1.0172287
O           2.7015535     0.0545062    -0.0305939
C           0.9997481    -2.3938295     5.8123731
H           0.8441637    -2.8973562     6.7619489
C           1.6670918    -1.1692288     5.7650862
H           2.0378242    -0.7115277     6.6781689
C           1.8791578    -0.5294842     4.5452032
H           2.4172570     0.4151908     4.5109723
C           1.4019486    -1.0996073     3.3579203
C           0.7194524    -2.3213630     3.4040829
H           0.3315998    -2.7636190     2.4931125
C           0.5345719    -2.9647856     4.6264552
H           0.0105761    -3.9164278     4.6495790
27
388_C12H11NO2S_6-11-12-22 (105,) energy =   -1067.2173943
C          -1.4728171    -2.5720202    -1.7199268
H          -2.2988251    -2.9244046    -2.3313981
C          -0.6104218    -3.4907497    -1.1202215
H          -0.7592014    -4.5566533    -1.2668833
C           0.4535383    -3.0429738    -0.3344985
H           1.1461405    -3.7376334     0.1284428
C           0.6323370    -1.6706662    -0.1598954
C          -0.2156302    -0.7392064    -0.7636186
H          -0.0406077     0.3233069    -0.6318760
C          -1.2742361    -1.1991644    -1.5440013
H          -1.9415436    -0.4863000    -2.0196998
S           2.0134614    -1.0897842     0.8286411
N           1.2648669    -0.4695171     2.2430999
H           1.5574769     0.5023969     2.3141535
O           2.8418447    -2.2489424     1.1598784
O           2.5615879     0.1062350     0.1794072
C           1.2680917    -2.4796061     5.9587816
H           1.2566282    -2.9890566     6.9179208
C           1.8084236    -1.1978643     5.8490778
H           2.2234892    -0.7022635     6.7224041
C           1.8363983    -0.5485834     4.6154624
H           2.2778646     0.4416775     4.5287155
C           1.2978480    -1.1700136     3.4824626
C           0.7395684    -2.4490583     3.5937100
H           0.3007105    -2.9236495     2.7223154
C           0.7402931    -3.1009772     4.8248686
H           0.3116864    -4.0966506     4.8997082
27
388_C12H11NO2S_6-11-12-22 (120,) energy =   -1067.2165298
C          -1.4023149    -2.4138712    -1.9743299
H          -2.1944738    -2.7230057    -2.6505512
C          -0.7105487    -3.3710292    -1.2296276
H          -0.9581899    -4.4239639    -1.3289146
C           0.3089884    -2.9797976    -0.3607450
H           0.8728627    -3.7099095     0.2099953
C           0.6178997    -1.6236812    -0.2494778
C          -0.0554942    -0.6565819    -0.9982324
H           0.2262313     0.3877638    -0.9162712
C          -1.0728911    -1.0605236    -1.8615938
H          -1.6036598    -0.3188813    -2.4515909
S           1.9271763    -1.1142256     0.8683641
N           1.0713790    -0.5942014     2.2678064
H           1.1690119     0.4181685     2.2996256
O           2.7213283    -2.2950676     1.2038902
O           2.5241623     0.1068737     0.3150131
C           1.5549134    -2.3688343     6.0723260
H           1.6636079    -2.8193002     7.0546742
C           1.8881537    -1.0288830     5.8723897
H           2.2609953    -0.4284431     6.6976322
C           1.7618046    -0.4534627     4.6083304
H           2.0429568     0.5851628     4.4496416
C           1.2736084    -1.2117668     3.5377444
C           0.9226799    -2.5516506     3.7403186
H           0.5254804    -3.1331706     2.9154832
C           1.0781582    -3.1260207     4.9997433
H           0.8103844    -4.1688393     5.1462225
27
388_C12H11NO2S_6-11-12-22 (135,) energy =   -1067.2159328
C          -1.3963240    -2.2713428    -2.1988789
H          -2.1620841    -2.5126226    -2.9308338
C          -0.8886985    -3.2728833    -1.3673786
H          -1.2541058    -4.2920066    -1.4550802
C           0.0954751    -2.9703245    -0.4272358
H           0.5153590    -3.7399015     0.2116833
C           0.5574234    -1.6564293    -0.3320855
C           0.0701383    -0.6482653    -1.1649704
H           0.4717312     0.3566064    -1.0903314
C          -0.9158458    -0.9639235    -2.1003535
H          -1.3020905    -0.1894226    -2.7567038
S           1.8236606    -1.2597095     0.8771933
N           0.8904444    -0.8630410     2.2698526
H           0.7790905     0.1487908     2.2690486
O           2.5766068    -2.4777043     1.1725042
O           2.4780778    -0.0235453     0.4322495
C           1.7927688    -2.3198920     6.1356438
H           2.0063278    -2.6906118     7.1340489
C           1.8827475    -0.9556931     5.8579694
H           2.1697669    -0.2556369     6.6377986
C           1.6215858    -0.4816801     4.5725970
H           1.7139785     0.5794288     4.3524297
C           1.2398887    -1.3699945     3.5599158
C           1.1340670    -2.7372400     3.8405609
H           0.8280639    -3.4228981     3.0589623
C           1.4239881    -3.2053537     5.1202129
H           1.3468925    -4.2691413     5.3276140
27
388_C12H11NO2S_6-11-12-22 (150,) energy =   -1067.2160047
C          -1.3923793    -2.1325679    -2.3049357
H          -2.1292181    -2.3143693    -3.0823806
C          -1.1161992    -3.1289557    -1.3634188
H          -1.6338505    -4.0826816    -1.4104884
C          -0.1716410    -2.9044637    -0.3644530
H           0.0615562    -3.6719451     0.3659445