28
405_C12H16_0-6-14-19 (-165,) energy =    -466.9178491
C           0.6665822    -0.6555539     1.2399010
H           1.3458280    -1.0762292     1.9769582
C          -0.5518872    -0.1291235     1.6658324
H          -0.8048146    -0.1446904     2.7231034
C          -1.4436692     0.4158433     0.7397874
H          -2.3943660     0.8271356     1.0686076
C           1.0348176    -0.6462314    -0.1161793
C          -1.1006331     0.4238541    -0.6112326
H          -1.7858075     0.8406069    -1.3453257
C           0.1230864    -0.1030450    -1.0322749
H           0.3626208    -0.0894638    -2.0909136
C           3.5679349    -0.7469350     0.2893092
H           3.6198918    -1.2096769     1.2811466
H           3.4523136     0.3325885     0.4454486
C           2.3646095    -1.2625630    -0.5514333
C           2.2538836    -2.8034218    -0.4403515
H           3.1895730    -3.2979325    -0.7255190
H           1.4590693    -3.1819692    -1.0931791
H           2.0147632    -3.1068480     0.5848604
C           2.8141719    -0.8700643    -1.9822535
H           2.6362901     0.2021066    -2.1332827
H           2.2610656    -1.4039500    -2.7636990
C           4.3313428    -1.1559797    -2.0307192
H           4.8465042    -0.4618607    -2.7028036
H           4.5233706    -2.1622561    -2.4190244
C           4.8289843    -1.0331231    -0.5605348
H           5.3164128    -1.9599866    -0.2389737
H           5.5715333    -0.2368818    -0.4436848
28
405_C12H16_0-6-14-19 (-150,) energy =    -466.9180397
C           0.7634930    -0.4504673     1.2526864
H           1.5039580    -0.7100157     2.0039553
C          -0.4596845     0.0806695     1.6639191
H          -0.6522233     0.2294683     2.7235696
C          -1.4304526     0.4217080     0.7215240
H          -2.3827667     0.8376269     1.0396613
C           1.0522050    -0.6513990    -0.1062459
C          -1.1641272     0.2226272    -0.6333189
H          -1.9100966     0.4827148    -1.3802808
C           0.0611517    -0.3089035    -1.0389318
H           0.2455340    -0.4561119    -2.0991147
C           3.5790906    -0.8647409     0.3483630
H           3.6064972    -1.4136810     1.2963896
H           3.4913117     0.2002445     0.5961815
C           2.3766858    -1.2742293    -0.5472064
C           2.2167297    -2.8146062    -0.5513680
H           3.1435211    -3.3170401    -0.8523329
H           1.4256582    -3.1213902    -1.2451038
H           1.9448204    -3.1790665     0.4457475
C           2.8606585    -0.7829451    -1.9387844
H           2.6946168     0.2992599    -2.0114060
H           2.3165244    -1.2493550    -2.7678923
C           4.3728244    -1.0931171    -1.9865341
H           4.9130250    -0.3533232    -2.5864169
H           4.5528535    -2.0652025    -2.4587530
C           4.8465923    -1.1103277    -0.5042140
H           5.3052531    -2.0737678    -0.2563064
H           5.6064028    -0.3468871    -0.3071166
28
405_C12H16_0-6-14-19 (-135,) energy =    -466.9179469
C           0.8284914    -0.2467327     1.2758859
H           1.6082915    -0.3443831     2.0248405
C          -0.4009814     0.3014174     1.6492650
H          -0.5538558     0.6237373     2.6762917
C          -1.4253940     0.4365543     0.7133111
H          -2.3815030     0.8651148     1.0019289
C           1.0661606    -0.6719786    -0.0389619
C          -1.2086226     0.0138386    -0.5995353
H          -1.9969479     0.1122440    -1.3417675
C           0.0199529    -0.5340875    -0.9663764
H           0.1676363    -0.8575679    -1.9934049
C           3.5811275    -0.9738039     0.4788655
H           3.5576411    -1.5516160     1.4100877
H           3.5366490     0.0873338     0.7544791
C           2.3935300    -1.3003303    -0.4645289
C           2.2045314    -2.8332101    -0.5683968
H           3.1259505    -3.3343869    -0.8867022
H           1.4207576    -3.0826239    -1.2924056
H           1.9087528    -3.2532899     0.3997578
C           2.9241970    -0.7283482    -1.8107346
H           2.7641955     0.3567224    -1.8195107
H           2.3987831    -1.1364863    -2.6813652
C           4.4378820    -1.0465616    -1.8372026
H           5.0016490    -0.2412458    -2.3195512
H           4.6369687    -1.9539683    -2.4178301
C           4.8553345    -1.2446106    -0.3507027
H           5.2145813    -2.2663736    -0.1855772
H           5.6724917    -0.5781877    -0.0556711
28
405_C12H16_0-6-14-19 (-120,) energy =    -466.9173767
C           0.8746714    -0.0835508     1.2283843
H           1.6910205    -0.0534537     1.9425023
C          -0.3518623     0.4831723     1.5866237
H          -0.4610726     0.9476003     2.5635648
C          -1.4275189     0.4549424     0.7013830
H          -2.3808435     0.8970633     0.9784956
C           1.0559620    -0.6971046    -0.0187369
C          -1.2651889    -0.1492329    -0.5472838
H          -2.0929367    -0.1780318    -1.2515733
C          -0.0413201    -0.7158341    -0.8977614
H           0.0642837    -1.1760787    -1.8768992
C           3.5660692    -1.0718592     0.5181074
H           3.5171651    -1.7056719     1.4113969
H           3.5461418    -0.0292757     0.8576261
C           2.3860274    -1.3142477    -0.4582208
C           2.1954192    -2.8340448    -0.6772127
H           3.1217014    -3.3124473    -1.0143390
H           1.4265749    -3.0354694    -1.4306938
H           1.8840502    -3.3214528     0.2538085
C           2.9421594    -0.6382681    -1.7463696
H           2.8033122     0.4461734    -1.6597473
H           2.4128193    -0.9567111    -2.6516329
C           4.4491165    -0.9850359    -1.7857451
H           5.0348192    -0.1562564    -2.1970242
H           4.6355546    -1.8477944    -2.4345694
C           4.8452481    -1.3080318    -0.3147968
H           5.1821477    -2.3465650    -0.2249291
H           5.6716905    -0.6831632     0.0394300
28
405_C12H16_0-6-14-19 (-105,) energy =    -466.9159949
C           0.9140274     0.0766157     1.1340972
H           1.7665486     0.2307636     1.7864590
C          -0.3052584     0.6598592     1.4887592
H          -0.3674934     1.2569780     2.3952136
C          -1.4333168     0.4795362     0.6910894
H          -2.3817194     0.9335180     0.9658194
C           1.0399456    -0.7128064    -0.0185276
C          -1.3270289    -0.2922419    -0.4671785
H          -2.1941121    -0.4401970    -1.1061876
C          -0.1092140    -0.8753002    -0.8132438
H          -0.0537793    -1.4609781    -1.7264426
C           3.5459195    -1.1630622     0.5237367
H           3.4749596    -1.8527219     1.3731107
H           3.5503261    -0.1457813     0.9305123
C           2.3715234    -1.3191858    -0.4785469
C           2.1881300    -2.8191197    -0.8090709
H           3.1322932    -3.2776813    -1.1210402
H           1.4702396    -2.9753309    -1.6203696
H           1.8237722    -3.3649449     0.0686654
C           2.9502193    -0.5477231    -1.7023285
H           2.8266991     0.5275248    -1.5256774
H           2.4192468    -0.7811352    -2.6325423
C           4.4522434    -0.9136647    -1.7579023
H           5.0541915    -0.0629181    -2.0940934
H           4.6324258    -1.7230463    -2.4737547
C           4.8286937    -1.3612927    -0.3141655
H           5.1447331    -2.4100646    -0.3041783
H           5.6638596    -0.7833862     0.0950959
28
405_C12H16_0-6-14-19 (-90,) energy =    -466.9148561
C           0.9993192     0.2395985     1.0064599
H           1.8949798     0.5337084     1.5425145
C          -0.2109063     0.8275636     1.3790105
H          -0.2241026     1.5554208     2.1865768
C          -1.3940639     0.4844992     0.7266903
H          -2.3372048     0.9398705     1.0167653
C           1.0696278    -0.7127797    -0.0233793
C          -1.3473901    -0.4531782    -0.3045018
H          -2.2572339    -0.7340155    -0.8292957
C          -0.1353653    -1.0391167    -0.6702253
H          -0.1370274    -1.7625514    -1.4787454
C           3.5504881    -1.2912663     0.5483727
H           3.4417327    -2.0638032     1.3184710
H           3.5679264    -0.3259133     1.0628608
C           2.3979781    -1.3259678    -0.4929903
C           2.2015298    -2.7893125    -0.9537635
H           3.1622264    -3.2630042    -1.1785353
H           1.5940311    -2.8604250    -1.8616624
H           1.7124233    -3.3816543    -0.1722982
C           3.0261104    -0.4797217    -1.6406843
H           2.9356255     0.5821071    -1.3807383
H           2.5036669    -0.6206819    -2.5939748
C           4.5150367    -0.8911950    -1.6955090
H           5.1513611    -0.0455854    -1.9769778
H           4.6774744    -1.6669360    -2.4518027
C           4.8533480    -1.4325580    -0.2740746
H           5.1742583    -2.4785526    -0.3257540
H           5.6764743    -0.8817239     0.1929793
28
405_C12H16_0-6-14-19 (-75,) energy =    -466.9154629
C           1.0497065     0.3831584     0.8015094
H           1.9826366     0.8034715     1.1646627
C          -0.1443512     0.9720466     1.2151582
H          -0.1156759     1.8196726     1.8954332
C          -1.3683695     0.4762038     0.7643059
H          -2.3007723     0.9309152     1.0881344
C           1.0672588    -0.7150240    -0.0765155
C          -1.3754491    -0.6111262    -0.1067935
H          -2.3176029    -1.0135391    -0.4707727
C          -0.1754880    -1.1967306    -0.5171366
H          -0.2223031    -2.0450808    -1.1907149
C           3.4908186    -1.4179699     0.5547614
H           3.3337823    -2.2718667     1.2239393
H           3.4753170    -0.5214192     1.1810147
C           2.3929708    -1.3348086    -0.5434722
C           2.1884419    -2.7486098    -1.1309459
H           3.1502750    -3.2104942    -1.3745052
H           1.6013218    -2.7285321    -2.0554323
H           1.6782126    -3.4044291    -0.4163933
C           3.0903487    -0.4323345    -1.6048296
H           3.0036196     0.6153519    -1.2917631
H           2.6140263    -0.5110621    -2.5887834
C           4.5741845    -0.8641168    -1.6092960
H           5.2353164    -0.0151697    -1.8129576
H           4.7630792    -1.5995851    -2.3989583
C           4.8378165    -1.4888503    -0.2061689
H           5.1794436    -2.5249185    -0.3041267
H           5.6249518    -0.9567267     0.3383452
28
405_C12H16_0-6-14-19 (-60,) energy =    -466.9164594
C           1.0574065     0.4972510     0.6052470
H           1.9975860     1.0010789     0.8136346
C          -0.1238858     1.0822602     1.0555896
H          -0.0836250     2.0196242     1.6049006
C          -1.3530301     0.4688109     0.8043694
H          -2.2766489     0.9216578     1.1548995
C           1.0573503    -0.7142357    -0.1100700
C          -1.3768322    -0.7314079     0.0983252
H          -2.3233721    -1.2250746    -0.1075627
C          -0.1876051    -1.3129225    -0.3507807
H          -0.2458726    -2.2486936    -0.8953599
C           3.4209903    -1.4954585     0.5527337
H           3.2173616    -2.3859788     1.1586628
H           3.3700830    -0.6364909     1.2299231
C           2.3801235    -1.3246690    -0.5930151
C           2.1747893    -2.6860605    -1.2869589
H           3.1336811    -3.1079766    -1.6036229
H           1.5492144    -2.5937346    -2.1819595
H           1.7047404    -3.4124421    -0.6143260
C           3.1459900    -0.3711300    -1.5577613
H           3.0617871     0.6588292    -1.1931431
H           2.7226365    -0.3843409    -2.5687993
C           4.6220158    -0.8277705    -1.5125378
H           5.3043828     0.0203804    -1.6323113
H           4.8412220    -1.5181790    -2.3343339
C           4.8053577    -1.5387033    -0.1380693
H           5.1406610    -2.5717205    -0.2805881
H           5.5678738    -1.0500938     0.4776951
28
405_C12H16_0-6-14-19 (-45,) energy =    -466.9163667
C           1.1610962     0.6462185     0.2060128
H           2.1016594     1.1907547     0.1710490
C           0.0247811     1.2999895     0.6769206
H           0.0935670     2.3379867     0.9929735
C          -1.1976673     0.6271366     0.7399324
H          -2.0869344     1.1342095     1.1046905
C           1.1208727    -0.6958457    -0.2138480
C          -1.2600498    -0.7014600     0.3268634
H          -2.2029663    -1.2413358     0.3662471
C          -0.1155680    -1.3519245    -0.1444097
H          -0.2036602    -2.3846999    -0.4635733
C           3.3986840    -1.6065780     0.4844675
H           3.2612419    -2.5915806     0.9452886
H           3.2164440    -0.8596858     1.2660073
C           2.4026925    -1.3799913    -0.7085320
C           2.1203517    -2.7321657    -1.3909256
H           3.0595942    -3.1841244    -1.7285503
H           1.4757102    -2.6124516    -2.2696231
H           1.6431955    -3.4461196    -0.7107251
C           3.2255914    -0.4673928    -1.7019844
H           2.6917676     0.4531039    -1.9530987
H           3.3710241    -1.0072971    -2.6452512
C           4.5928011    -0.1924073    -1.0391394
H           4.5490099     0.7300233    -0.4439231
H           5.3987391    -0.0639160    -1.7702697
C           4.8015137    -1.3912988    -0.1019225
H           5.1196497    -2.2714395    -0.6766958
H           5.5620401    -1.2137063     0.6668741
28
405_C12H16_0-6-14-19 (-30,) energy =    -466.9153762
C           1.1505694     0.6951252     0.0177846
H           2.0300067     1.2965365    -0.1927310
C           0.0180870     1.3304785     0.5264810
H           0.0338684     2.4057559     0.6865957
C          -1.1288800     0.5940476     0.8245931
H          -2.0144509     1.0866824     1.2170572
C           1.1805021    -0.6920319    -0.2076282
C          -1.1201954    -0.7833078     0.6119348
H          -2.0031663    -1.3759801     0.8382825
C           0.0177111    -1.4139875     0.1038022
H          -0.0152582    -2.4870622    -0.0509660
C           3.4017504    -1.7133811     0.4876960
H           3.2835700    -2.7502193     0.8229901
H           3.1459949    -1.0712383     1.3382648
C           2.4519067    -1.3831787    -0.7267633
C           2.1333079    -2.6772429    -1.5025342
H           3.0635469    -3.1411143    -1.8500774
H           1.5118642    -2.4724509    -2.3823261
H           1.6165390    -3.4202393    -0.8868576
C           3.3383132    -0.4523254    -1.6380539
H           2.8035331     0.4375718    -1.9804146
H           3.6151006    -1.0081401    -2.5421691
C           4.6142788    -0.1248607    -0.8405217
H           4.4489051     0.7411791    -0.1848322
H           5.4668144     0.1150997    -1.4858541
C           4.8259249    -1.3819733     0.0153393
H           5.2261328    -2.1946221    -0.6062371
H           5.5252584    -1.2326925     0.8457390
28
405_C12H16_0-6-14-19 (-15,) energy =    -466.9159844
C           1.4301608     0.4037486     0.0944522
H           2.3141979     0.9153724    -0.2707363
C           0.4212910     1.1669322     0.6879120
H           0.5447686     2.2439414     0.7705357
C          -0.7335925     0.5555900     1.1710787
H          -1.5205086     1.1475076     1.6308399
C           1.3152092    -0.9883243    -0.0424937
C          -0.8627125    -0.8295865     1.0593156
H          -1.7534637    -1.3269779     1.4351209
C           0.1480893    -1.5852573     0.4669367
H           0.0205834    -2.6617443     0.4055066
C           3.2852089    -2.4872771     0.4981587
H           3.8638218    -3.3250933     0.0837223
H           2.6710774    -2.8841072     1.3139455
C           2.4330453    -1.8607281    -0.6445952
C           1.8397785    -2.9415850    -1.5706866
H           2.6456163    -3.5315227    -2.0226108
H           1.2530090    -2.4921815    -2.3802539
H           1.1879583    -3.6405904    -1.0370463
C           3.5093849    -1.0332372    -1.4078389
H           3.0776677    -0.1893115    -1.9550584
H           3.9669772    -1.6846374    -2.1609436
C           4.5868273    -0.6078954    -0.3682832
H           4.6051795     0.4759430    -0.2092319
H           5.5859496    -0.8841700    -0.7231567
C           4.2328290    -1.3620971     0.9411787
H           5.1177335    -1.7395744     1.4646744
H           3.7107392    -0.6922088     1.6336172
28
405_C12H16_0-6-14-19 (0,) energy =    -466.9168572
C           1.3328323     0.4437262    -0.0963259
H           2.1363142     0.9663370    -0.6039290
C           0.3180782     1.2014827     0.4958797
H           0.3569394     2.2862968     0.4352497
C          -0.7337625     0.5753461     1.1604481
H          -1.5234720     1.1632226     1.6206093
C           1.3236020    -0.9570725    -0.0466123
C          -0.7573092    -0.8191679     1.2303255
H          -1.5673690    -1.3265238     1.7483859
C           0.2577156    -1.5680011     0.6385165
H           0.2192709    -2.6515332     0.7144541
C           3.2351508    -2.5466009     0.4505617
H           3.8096359    -3.3673500    -0.0012348
H           2.6009784    -2.9829417     1.2294845
C           2.4235129    -1.8368884    -0.6702716
C           1.7904010    -2.8373026    -1.6584177
H           2.5626908    -3.4823764    -2.0945163
H           1.2839050    -2.3125291    -2.4769006
H           1.0511971    -3.4849137    -1.1757485
C           3.5509084    -1.0265758    -1.3635951
H           3.1756205    -0.2002996    -1.9758200
H           4.0694080    -1.7050709    -2.0517981
C           4.5303653    -0.5785269    -0.2462220
H           4.4144770     0.4835657    -0.0057241
H           5.5692994    -0.7133557    -0.5661510
C           4.1890533    -1.4636817     0.9868015
H           5.0794726    -1.8919392     1.4590473
H           3.6778049    -0.8661505     1.7496250
28
405_C12H16_0-6-14-19 (15,) energy =    -466.9170411
C           1.2550198     0.4230167    -0.2556061
H           1.9746806     0.9306730    -0.8889368
C           0.2281418     1.1773879     0.3190973
H           0.1741923     2.2449546     0.1205952
C          -0.7193670     0.5696617     1.1397947
H          -1.5178724     1.1551796     1.5876310
C           1.3677285    -0.9548247    -0.0241695
C          -0.6296179    -0.8032812     1.3778070
H          -1.3616001    -1.2965077     2.0125649
C           0.3977484    -1.5488248     0.8027947
H           0.4407049    -2.6171150     0.9985432
C           3.2396293    -2.6234722     0.4166303
H           3.8007032    -3.4270768    -0.0795577
H           2.5967569    -3.0972333     1.1648467
C           2.4544413    -1.8359847    -0.6708813
C           1.7939352    -2.7661452    -1.7073464
H           2.5421688    -3.4228111    -2.1682208
H           1.3120836    -2.1869539    -2.5037097
H           1.0252501    -3.3991727    -1.2505706
C           3.6196532    -1.0280220    -1.2966285
H           3.2943524    -0.2024421    -1.9375810
H           4.1811942    -1.7130347    -1.9447158
C           4.5131436    -0.5822074    -0.1160032
H           4.2675807     0.4370880     0.2001618
H           5.5711465    -0.5779044    -0.3991349
C           4.2132337    -1.5951876     1.0287349
H           5.1196820    -2.0721177     1.4161615
H           3.7369174    -1.0838973     1.8722561
28
405_C12H16_0-6-14-19 (30,) energy =    -466.9165119
C           1.1645674     0.3570696    -0.4221213
H           1.7907791     0.8063315    -1.1859238
C           0.1322057     1.1231302     0.1236954
H          -0.0175098     2.1429582    -0.2221095
C          -0.7019062     0.5866004     1.1030560
H          -1.5047025     1.1815264     1.5303394
C           1.4026896    -0.9606947    -0.0026744
C          -0.4935536    -0.7273460     1.5233453
H          -1.1375364    -1.1674148     2.2807503
C           0.5404262    -1.4858789     0.9747215
H           0.6673971    -2.5096415     1.3138149
C           3.2341058    -2.7113718     0.4013190
H           3.7930937    -3.4873011    -0.1384480
H           2.5771094    -3.2324356     1.1033563
C           2.4865020    -1.8465970    -0.6520525
C           1.8245603    -2.7046263    -1.7477206
H           2.5632335    -3.3585831    -2.2279528
H           1.3722571    -2.0743436    -2.5222355
H           1.0303982    -3.3356078    -1.3324892
C           3.6897047    -1.0336237    -1.1976806
H           3.4128993    -0.1819360    -1.8261745
H           4.2775343    -1.7060831    -1.8363469
C           4.5158815    -0.6374077     0.0441716
H           4.2011980     0.3429775     0.4174937
H           5.5831780    -0.5609029    -0.1891735
C           4.2139324    -1.7431202     1.0991647
H           5.1194717    -2.2583876     1.4365930
H           3.7473811    -1.3054465     1.9881889
28
405_C12H16_0-6-14-19 (45,) energy =    -466.9165816
C           1.0217984     0.2275021    -0.5906665
H           1.5204521     0.5622719    -1.4955362
C           0.0045350     1.0199236    -0.0594025
H          -0.2583142     1.9543644    -0.5490398
C          -0.6712659     0.6182642     1.0933672
H          -1.4618690     1.2351021     1.5122373
C           1.3979477    -0.9881195     0.0058102
C          -0.3182483    -0.5866795     1.6982087
H          -0.8342506    -0.9187021     2.5957234
C           0.7004316    -1.3761481     1.1596337
H           0.9462617    -2.3085398     1.6569595
C           3.1873976    -2.8176387     0.3710354
H           3.7519270    -3.5572592    -0.2117594
H           2.5021537    -3.3882765     1.0048024
C           2.4886559    -1.8697253    -0.6372073
C           1.8561624    -2.6467222    -1.8095289
H           2.6039105    -3.2786868    -2.3048458
H           1.4372413    -1.9651357    -2.5586688
H           1.0415272    -3.2919743    -1.4605363
C           3.7174934    -1.0317719    -1.0873296
H           3.4627952    -0.1231779    -1.6398898
H           4.3185614    -1.6532764    -1.7643377
C           4.5068787    -0.7453708     0.2089874
H           4.1859539     0.2062491     0.6460851
H           5.5818139    -0.6605589     0.0174982
C           4.1638213    -1.9252019     1.1671707
H           5.0533331    -2.4818621     1.4807696
H           3.6862904    -1.5502692     2.0787119
28
405_C12H16_0-6-14-19 (60,) energy =    -466.9170847
C           0.8611451     0.0933266    -0.7195345
H           1.2412599     0.3150114    -1.7135261
C          -0.1482720     0.8967163    -0.1931842
H          -0.5353367     1.7270275    -0.7786343
C          -0.6603179     0.6373059     1.0798603
H          -1.4466159     1.2622128     1.4948592
C           1.3922187    -0.9920958     0.0001427
C          -0.1488673    -0.4332197     1.8097073
H          -0.5342659    -0.6504699     2.8028233
C           0.8629853    -1.2359870     1.2747386
H           1.2370909    -2.0601408     1.8725706
C           3.1317134    -2.8804285     0.3289393
H           3.6686388    -3.6198353    -0.2785557
H           2.4035464    -3.4447370     0.9203050
C           2.4887559    -1.8608359    -0.6456743
C           1.9097104    -2.5674144    -1.8873842
H           2.6803040    -3.1743406    -2.3783963
H           1.5276722    -1.8509951    -2.6226298
H           1.0801645    -3.2288174    -1.6111969
C           3.7350825    -0.9941061    -0.9844095
H           3.4866004    -0.0478719    -1.4754096
H           4.3717071    -1.5608105    -1.6777133
C           4.4587118    -0.7986836     0.3627493
H           4.0619540     0.0851063     0.8740917
H           5.5335454    -0.6354417     0.2312676
C           4.1441884    -2.0825093     1.1861568
H           5.0438194    -2.6748842     1.3846886
H           3.7202802    -1.8197444     2.1610511
28
405_C12H16_0-6-14-19 (75,) energy =    -466.9164130
C           0.6937184    -0.0586077    -0.7840294
H           0.9415820     0.0548861    -1.8356171
C          -0.3115250     0.7428578    -0.2460533
H          -0.8314235     1.4528663    -0.8845033
C          -0.6517482     0.6336609     1.1035327
H          -1.4366601     1.2551632     1.5261919
C           1.3946161    -0.9921830     0.0007246
C           0.0305447    -0.2831484     1.8999015
H          -0.2184831    -0.3825262     2.9535197
C           1.0371781    -1.0845263     1.3537350
H           1.5432192    -1.7890291     2.0047207
C           3.0657056    -2.9404171     0.3166850
H           3.5222959    -3.7229767    -0.3006802
H           2.2882169    -3.4343340     0.9082574
C           2.4969520    -1.8556131    -0.6423294
C           1.9843695    -2.5043457    -1.9423865
H           2.7719399    -3.1203267    -2.3923918
H           1.6814727    -1.7638274    -2.6893717
H           1.1195821    -3.1488250    -1.7461235
C           3.7691306    -0.9880497    -0.8749841
H           3.5420892    -0.0121383    -1.3182004
H           4.4322019    -1.5187945    -1.5728629
C           4.4314965    -0.8848056     0.5082605
H           3.9567806    -0.0836139     1.0855598
H           5.4982925    -0.6456295     0.4438044
C           4.1641105    -2.2597965     1.1797178
H           5.0697351    -2.8759685     1.2001330
H           3.8518339    -2.1346813     2.2221006
28
405_C12H16_0-6-14-19 (90,) energy =    -466.9153856
C           0.5667042    -0.2302827    -0.8380954
H           0.6689578    -0.2356060    -1.9182451
C          -0.4504780     0.5397616    -0.2734997
H          -1.1151710     1.1061673    -0.9211591
C          -0.6191599     0.5807057     1.1104907
H          -1.4125133     1.1774756     1.5525710
C           1.4507108    -0.9826902    -0.0451610
C           0.2437944    -0.1590863     1.9169837
H           0.1282573    -0.1447896     2.9979431
C           1.2586817    -0.9294892     1.3456049
H           1.9030819    -1.5001159     2.0059384
C           3.0818454    -2.9581730     0.2473803
H           3.4416936    -3.7809928    -0.3802629
H           2.2717189    -3.3700496     0.8571291
C           2.5831732    -1.8079858    -0.6857142
C           2.1636822    -2.3737457    -2.0553622
H           2.9635285    -3.0066159    -2.4561873
H           1.9765047    -1.5880300    -2.7945074
H           1.2558990    -2.9831576    -1.9767827
C           3.8683858    -0.9312995    -0.8073275
H           3.6520576     0.0803815    -1.1682968
H           4.5437352    -1.4023457    -1.5358074
C           4.5068474    -0.9570292     0.5875671
H           4.0059034    -0.2310933     1.2378326
H           5.5693061    -0.6911620     0.5684561
C           4.2596744    -2.3986970     1.0983092
H           5.1531714    -3.0172475     0.9572670
H           4.0417920    -2.4134552     2.1722354
28
405_C12H16_0-6-14-19 (105,) energy =    -466.9154863
C           0.3112591    -0.5025722    -0.8842703
H           0.3790766    -0.7655311    -1.9341819
C          -0.7826628     0.2555827    -0.4591658
H          -1.5331024     0.5623729    -1.1836189
C          -0.9123197     0.6191813     0.8795189
H          -1.7631083     1.2080826     1.2116905
C           1.2995103    -0.9322140     0.0141411
C           0.0708600     0.2202844     1.7865792
H          -0.0061922     0.5018560     2.8338816
C           1.1584095    -0.5384519     1.3569445
H           1.9146723    -0.8178027     2.0854091
C           2.9321908    -2.8801988     0.5106959
H           2.4929205    -3.8263428     0.1742854
H           2.5560943    -2.7031256     1.5232057
C           2.5477464    -1.7014437    -0.4452331
C           2.3775876    -2.2764501    -1.8669070
H           3.2453191    -2.8937375    -2.1253450
H           2.3079263    -1.4881245    -2.6247018
H           1.4838929    -2.9064647    -1.9438665
C           3.8221940    -0.7633484    -0.4257261
H           3.5654267     0.2609563    -0.1410422
H           4.2522174    -0.7132262    -1.4333133
C           4.8286192    -1.4047195     0.5541426
H           4.6791012    -1.0039352     1.5657858
H           5.8711071    -1.2055871     0.2815571
C           4.4687982    -2.8981296     0.5386235
H           4.8660591    -3.3728892    -0.3685406
H           4.8719199    -3.4505652     1.3949478
28
405_C12H16_0-6-14-19 (120,) energy =    -466.9164686
C           0.2220846    -0.6313810    -0.8418696
H           0.2189921    -1.0035456    -1.8605277
C          -0.8885599     0.0900371    -0.3931414
H          -1.7234699     0.2596310    -1.0686088
C          -0.9279644     0.5904355     0.9059460
H          -1.7906422     1.1512737     1.2555695
C           1.3188216    -0.8783280    -0.0052682
C           0.1595101     0.3637995     1.7529340
H           0.1500345     0.7510232     2.7688118
C           1.2618454    -0.3573074     1.3003660
H           2.0987280    -0.5132643     1.9770874
C           2.8725252    -2.8699666     0.4640778
H           2.4026299    -3.7863819     0.0888335
H           2.4700605    -2.6957032     1.4680471
C           2.5665246    -1.6448846    -0.4645570
C           2.4401444    -2.1490611    -1.9151656
H           3.3317244    -2.7233630    -2.1903027
H           2.3536357    -1.3204764    -2.6275852
H           1.5718717    -2.8051700    -2.0447745
C           3.8673695    -0.7527209    -0.3458264
H           3.6334483     0.2630523    -0.0149733
H           4.3343193    -0.6609983    -1.3337270
C           4.8213284    -1.4776410     0.6295492
H           4.6610534    -1.1166181     1.6545491
H           5.8776926    -1.3083155     0.3927638
C           4.4045365    -2.9535747     0.5393796
H           4.8118162    -3.4073196    -0.3740127
H           4.7571430    -3.5558600     1.3843164
28
405_C12H16_0-6-14-19 (135,) energy =    -466.9164361
C           0.1645060    -0.7775534    -0.7868412
H           0.1109071    -1.2618781    -1.7557775
C          -0.9636914    -0.0959384    -0.3204245
H          -1.8625218    -0.0696149    -0.9315891
C          -0.9402832     0.5455001     0.9156527
H          -1.8166106     1.0760079     1.2783828
C           1.3461596    -0.8335254    -0.0354288
C           0.2258808     0.4968466     1.6829888
H           0.2638094     0.9902973     2.6510428
C           1.3463589    -0.1837087     1.2121837
H           2.2403263    -0.2115723     1.8308048
C           2.8213103    -2.8694301     0.4043220
H           2.3277782    -3.7551239    -0.0121119
H           2.3915904    -2.7017669     1.3987860
C           2.5925210    -1.6024952    -0.4937753
C           2.5009339    -2.0429636    -1.9673392