20
210_C6H9NO2S2_1-0-16-17 (-165,) energy =   -1235.5347202
S           2.6364982    -1.8470680     0.0563353
N           3.7947990    -0.8666281     0.8174729
C           5.0836880    -0.7647497     0.1174271
H           4.9100682    -0.5902207    -0.9434475
H           5.7025816    -1.6653392     0.2389322
H           5.6199090     0.0904686     0.5407104
C           3.9127552    -1.0936630     2.2644122
H           2.9215721    -1.1048193     2.7224608
H           4.4797074    -0.2595953     2.6895705
H           4.4225050    -2.0367935     2.5019500
O           2.4738434    -3.1359987     0.7401819
O           2.9364867    -1.8206380    -1.3777215
C          -0.2982012     0.8755925     0.6800367
H          -0.5964059     1.8968777     0.8893009
C           1.0567504     0.4385887     0.6337582
H           1.9197705     1.0752884     0.7822803
C           1.1615337    -0.9044008     0.3724032
S          -0.3977682    -1.6496776     0.1445571
C          -1.1867185    -0.1358342     0.4285502
H          -2.2675591    -0.0850301     0.4046775
20
210_C6H9NO2S2_1-0-16-17 (-150,) energy =   -1235.5359555
S           2.6780860    -1.7562278    -0.0388526
N           3.8253250    -0.8351363     0.8110710
C           5.1569551    -0.7875311     0.1885780
H           5.0530803    -0.5820795    -0.8761001
H           5.7211591    -1.7215299     0.3248402
H           5.7105717     0.0300294     0.6607957
C           3.8507641    -1.1029595     2.2551081
H           2.8357740    -1.0689287     2.6573974
H           4.4357313    -0.3107992     2.7325011
H           4.2958259    -2.0778991     2.4948509
O           2.5128321    -3.1022931     0.5263853
O           2.9956594    -1.6004268    -1.4606565
C          -0.3217460     0.8740240     0.6358020
H          -0.6564328     1.8985388     0.7547183
C           1.0407051     0.4996574     0.4640906
H           1.8738005     1.1907430     0.4243587
C           1.1961802    -0.8599030     0.3576070
S          -0.3260942    -1.7028806     0.4406482
C          -1.1676805    -0.2045619     0.6355282
H          -2.2437463    -0.2073735     0.7519658
20
210_C6H9NO2S2_1-0-16-17 (-135,) energy =   -1235.5366429
S           2.6971804    -1.6771958    -0.1186276
N           3.8383030    -0.8273337     0.8124393
C           5.1990167    -0.8296257     0.2535060
H           5.1549446    -0.5925925    -0.8089883
H           5.7113156    -1.7931402     0.3906303
H           5.7679893    -0.0513188     0.7714940
C           3.7860826    -1.1421291     2.2458185
H           2.7571789    -1.0666792     2.6055702
H           4.3882225    -0.3963968     2.7737924
H           4.1704205    -2.1459460     2.4716253
O           2.5123115    -3.0578906     0.3513519
O           3.0423908    -1.4202465    -1.5186149
C          -0.3563745     0.8828679     0.5694468
H          -0.7326548     1.8993335     0.6007857
C           0.9940913     0.5459809     0.2750147
H           1.7758625     1.2617426     0.0501437
C           1.2103175    -0.8087224     0.3135516
S          -0.2387409    -1.6965625     0.6932821
C          -1.1331965    -0.2217008     0.8096767
H          -2.1861868    -0.2526498     1.0582798
20
210_C6H9NO2S2_1-0-16-17 (-120,) energy =   -1235.5368474
S           2.7128728    -1.6138124    -0.1598220
N           3.8457176    -0.8319320     0.8409078
C           5.2198228    -0.8435596     0.3157930
H           5.2096156    -0.5475851    -0.7327902
H           5.7027223    -1.8271831     0.4121146
H           5.7960421    -0.1106140     0.8889512
C           3.7506979    -1.2143730     2.2548561
H           2.7170983    -1.1210833     2.5970723
H           4.3642487    -0.5154690     2.8313991
H           4.0968401    -2.2403336     2.4401290
O           2.5215142    -3.0195398     0.2264205
O           3.0783508    -1.2638386    -1.5339986
C          -0.3987852     0.8789652     0.4999065
H          -0.8245736     1.8739239     0.4326504
C           0.9253853     0.5544292     0.0944998
H           1.6357779     1.2596054    -0.3208728
C           1.2153948    -0.7729443     0.2869639
S          -0.1315958    -1.6517405     0.9537929
C          -1.0825729    -0.2083504     0.9817969
H          -2.0992600    -0.2436441     1.3515057
20
210_C6H9NO2S2_1-0-16-17 (-105,) energy =   -1235.5367395
S           2.7259666    -1.5552615    -0.1708121
N           3.8506849    -0.8428510     0.8924081
C           5.2256089    -0.8003681     0.3706166
H           5.2150106    -0.4217663    -0.6509125
H           5.7178852    -1.7839913     0.3891479
H           5.7938760    -0.1101941     1.0018981
C           3.7594217    -1.3350137     2.2720043
H           2.7271641    -1.2709654     2.6245685
H           4.3726411    -0.6811980     2.8995286
H           4.1082515    -2.3713856     2.3767325
O           2.5296210    -2.9777775     0.1415859
O           3.1090919    -1.1228893    -1.5165242
C          -0.4450211     0.8798191     0.3861753
H          -0.9245136     1.8346709     0.2016490
C           0.8477629     0.5351638    -0.0968784
H           1.4782861     1.1809853    -0.6966565
C           1.2180118    -0.7332199     0.2721751
S          -0.0163419    -1.5338682     1.2038725
C          -1.0254228    -0.1329940     1.1062471
H          -1.9995400    -0.1407070     1.5780062
20
210_C6H9NO2S2_1-0-16-17 (-90,) energy =   -1235.5371491
S           2.5965343    -1.2358225     1.8555872
N           3.8996866    -0.7241498     0.8856426
C           4.0069460    -1.4305832    -0.3948657
H           3.0511073    -1.3885487    -0.9229214
H           4.3073646    -2.4806191    -0.2781982
H           4.7510567    -0.9060754    -1.0016969
C           5.1754434    -0.5970602     1.6066771
H           5.0136074    -0.0549685     2.5378456
H           5.8550932    -0.0206055     0.9715391
H           5.6374851    -1.5704564     1.8284712
O           2.7821431    -0.6089268     3.1660806
O           2.3954596    -2.6848891     1.7255229
C          -0.6735097    -0.1660598    -0.2538601
H          -1.4327985    -0.4272427    -0.9824159
C           0.3884900    -1.0327085     0.1307184
H           0.5313712    -2.0416697    -0.2378270
C           1.2131600    -0.4590093     1.0661785
S           0.6788967     1.1321420     1.5262321
C          -0.6410313     1.0313338     0.4123825
H          -1.3309336     1.8608089     0.3249326
20
210_C6H9NO2S2_1-0-16-17 (-75,) energy =   -1235.5379977
S           2.6119960    -1.2730616     1.8281123
N           3.9204679    -0.6858576     0.9112166
C           4.0396079    -1.2987552    -0.4162948
H           3.0772711    -1.2556363    -0.9322508
H           4.3758725    -2.3436780    -0.3723840
H           4.7606319    -0.7102911    -0.9916984
C           5.1905220    -0.6136478     1.6493603
H           5.0204633    -0.1455797     2.6184989
H           5.8740820     0.0108921     1.0659620
H           5.6520480    -1.6011241     1.7977118
O           2.7725390    -0.7179089     3.1736711
O           2.4265119    -2.7160359     1.6247141
C          -0.7232722    -0.2214999    -0.1761984
H          -1.5582017    -0.5205715    -0.7998413
C           0.2976927    -1.1110394     0.2641424
H           0.3431446    -2.1704656     0.0417910
C           1.2374372    -0.4791917     1.0394063
S           0.8769750     1.2089938     1.2655523
C          -0.5395581     1.0565305     0.2829127
H          -1.1634074     1.9235130     0.1072137
20
210_C6H9NO2S2_1-0-16-17 (-60,) energy =   -1235.5381853
S           2.6068845    -1.3346438     1.7658745
N           3.9269439    -0.6747437     0.9214546
C           4.0892986    -1.2066088    -0.4367662
H           3.1342085    -1.1690557    -0.9664120
H           4.4604776    -2.2404953    -0.4438981
H           4.7989191    -0.5631651    -0.9655980
C           5.1774357    -0.6187120     1.6929125
H           4.9737515    -0.2146392     2.6840666
H           5.8590280     0.0550719     1.1645910
H           5.6585962    -1.6028246     1.7923060
O           2.7287288    -0.8623927     3.1467290
O           2.4384428    -2.7664739     1.4828845
C          -0.8042797    -0.2391445    -0.0723165
H          -1.7237552    -0.5408069    -0.5612380
C           0.1817427    -1.1528227     0.3975581
H           0.1196707    -2.2321657     0.3282741
C           1.2518316    -0.5124890     0.9699740
S           1.0670409     1.2190611     0.9560479
C          -0.4628646     1.0673477     0.1598459
H          -1.0216609     1.9580051    -0.0974555
20
210_C6H9NO2S2_1-0-16-17 (-45,) energy =   -1235.5378734
S           2.6105256    -1.4195974     1.6957059
N           3.9285087    -0.6723355     0.9227178
C           4.1556788    -1.1451649    -0.4492576
H           3.2162358    -1.1326995    -1.0070445
H           4.5743454    -2.1600591    -0.4806796
H           4.8499615    -0.4508648    -0.9319874
C           5.1519111    -0.5987090     1.7358209
H           4.9023272    -0.2417253     2.7343397
H           5.8223046     0.1198191     1.2543749
H           5.6672719    -1.5671363     1.8131711
O           2.6963448    -1.0356050     3.1067308
O           2.4785412    -2.8359385     1.3285029
C          -0.8631471    -0.2320700     0.0438756
H          -1.8508836    -0.5015256    -0.3129308
C           0.0859812    -1.1725983     0.5365778
H          -0.0737686    -2.2417200     0.6094317
C           1.2607285    -0.5735295     0.9148196
S           1.2287702     1.1504498     0.6737450
C          -0.3877821     1.0529085     0.0598484
H          -0.8894454     1.9532909    -0.2708534
20
210_C6H9NO2S2_1-0-16-17 (-30,) energy =   -1235.5368650
S           2.5806683    -1.5087171     1.5998753
N           3.8975959    -0.6881935     0.9031517
C           4.2122610    -1.1220347    -0.4652190
H           3.2997656    -1.1607091    -1.0641598
H           4.6954118    -2.1077818    -0.4917617
H           4.8815106    -0.3776200    -0.9069337
C           5.0773010    -0.5555989     1.7710807
H           4.7638744    -0.2400251     2.7652399
H           5.7198563     0.2151536     1.3343394
H           5.6499236    -1.4909126     1.8505050
O           2.6439563    -1.2407105     3.0390064
O           2.4689150    -2.8925192     1.1214620
C          -0.9205725    -0.1516572     0.1405011
H          -1.9574753    -0.3571884    -0.1008983
C          -0.0189508    -1.1245671     0.6589851
H          -0.2703710    -2.1596764     0.8581892
C           1.2331002    -0.6078612     0.8744924
S           1.3388693     1.0713948     0.4297941
C          -0.3302908     1.0723504    -0.0344035
H          -0.7765414     1.9773337    -0.4261219
20
210_C6H9NO2S2_1-0-16-17 (-15,) energy =   -1235.5353669
S           2.5864913    -1.6056049     1.4886602
N           3.8977024    -0.7145536     0.8699598
C           4.3184390    -1.1226582    -0.4783285
H           3.4482904    -1.2202956    -1.1302278
H           4.8660290    -2.0743364    -0.4761634
H           4.9626838    -0.3346156    -0.8798469
C           5.0124310    -0.5045319     1.8050814
H           4.6231897    -0.2121275     2.7791117
H           5.6273756     0.3071879     1.4041549
H           5.6394038    -1.4001103     1.9211251
O           2.6317740    -1.4716920     2.9473877
O           2.5056174    -2.9397691     0.8826667
C          -0.9473236    -0.0952506     0.2633658
H          -2.0158197    -0.2365917     0.1444305
C          -0.0734973    -1.0812046     0.8045260
H          -0.3848164    -2.0645187     1.1377701
C           1.2277149    -0.6509657     0.8509410
S           1.4127496     0.9565248     0.2109643
C          -0.2887926     1.0493320    -0.1017961
H          -0.7046808     1.9450306    -0.5448035
20
210_C6H9NO2S2_1-0-16-17 (0,) energy =   -1235.5340819
S           2.5639943    -1.8287795     1.1071648
N           3.8843532    -0.8745343     0.6280607
C           4.7053276    -1.4080493    -0.4666293
H           4.0660402    -1.8317477    -1.2400235
H           5.4076032    -2.1813663    -0.1253682
H           5.2741895    -0.5746153    -0.8907791
C           4.6509689    -0.2588822     1.7195526
H           3.9752075     0.1557891     2.4677633
H           5.2428090     0.5560429     1.2912132
H           5.3254161    -0.9721659     2.2122933
O           2.6027749    -2.0274451     2.5591928
O           2.4774179    -2.9837693     0.2089810
C          -0.9644664     0.0657946     0.5849518
H          -2.0446688     0.0439473     0.6780642
C          -0.1148411    -1.0129624     0.9641664
H          -0.4626955    -1.9498685     1.3840850
C           1.2083991    -0.7337170     0.7393833
S           1.4412213     0.8536578     0.0669008
C          -0.2682197     1.1364514     0.0894247
H          -0.6612041     2.0790644    -0.2688802
20
210_C6H9NO2S2_1-0-16-17 (15,) energy =   -1235.5353669
S           2.5598999    -1.9133643     0.8385530
N           3.8823446    -0.9074238     0.4699787
C           4.9097192    -1.5104096    -0.3915671
H           4.4328480    -2.0328950    -1.2194299
H           5.5573704    -2.2123005     0.1529985
H           5.5251844    -0.6958884    -0.7859250
C           4.4256718    -0.1813436     1.6272181
H           3.6153278     0.2745037     2.1992410
H           5.0706088     0.6169095     1.2476082
H           5.0063315    -0.8315243     2.2948251
O           2.5774916    -2.3380176     2.2432382
O           2.4827041    -2.9202030    -0.2236410
C          -0.9173162     0.1309481     0.7987102
H          -1.9667861     0.1653445     1.0693521
C          -0.0538905    -0.9578113     1.1110734
H          -0.3543320    -1.8459359     1.6549826
C           1.2224471    -0.7554755     0.6521600
S           1.3984006     0.7797582    -0.1478100
C          -0.2745212     1.1370875     0.1267757
H          -0.6860250     2.0764609    -0.2192511
20
210_C6H9NO2S2_1-0-16-17 (30,) energy =   -1235.5368650
S           2.5464954    -1.9184823     0.7031356
N           3.8851128    -0.9025846     0.4377903
C           4.9847951    -1.5111911    -0.3257397
H           4.5805504    -2.0354367    -1.1905698
H           5.5807393    -2.2110644     0.2776058
H           5.6340098    -0.6992215    -0.6676169
C           4.3256528    -0.1748891     1.6362845
H           3.4669905     0.2831109     2.1321012
H           5.0016147     0.6228583     1.3140518
H           4.8442670    -0.8242624     2.3540463
O           2.5250964    -2.4704559     2.0637071
O           2.4822906    -2.8223321    -0.4483377
C          -0.8711675     0.2013057     0.9296946
H          -1.8765832     0.2841999     1.3271073
C           0.0203709    -0.8635755     1.2449950
H          -0.2076760    -1.6880718     1.9102476
C           1.2308585    -0.7291711     0.6143697
S           1.3105046     0.7100370    -0.3610036
C          -0.3143130     1.1197657     0.0790140
H          -0.7602103     2.0281850    -0.3050876
20
210_C6H9NO2S2_1-0-16-17 (45,) energy =   -1235.5378736
S           2.5475003    -1.9228698     0.5683424
N           3.9041208    -0.9090900     0.4118692
C           5.0515997    -1.5245011    -0.2718375
H           4.7080001    -2.0273265    -1.1750923
H           5.5870177    -2.2440226     0.3646117
H           5.7388075    -0.7189553    -0.5481866
C           4.2599845    -0.2008248     1.6483671
H           3.3709541     0.2673374     2.0776099
H           4.9716150     0.5887849     1.3890657
H           4.7096864    -0.8646332     2.3989834
O           2.4869168    -2.5752228     1.8832276
O           2.5021999    -2.7325075    -0.6516268
C          -0.8058923     0.2569339     1.0284303
H          -1.7514646     0.3923135     1.5413760
C           0.1243540    -0.7759595     1.3383071
H          -0.0109082    -1.5279862     2.1064180
C           1.2447590    -0.7187457     0.5487427
S           1.1840392     0.6002320    -0.5860589
C          -0.3705150     1.0704833     0.0155427
H          -0.8675603     1.9352398    -0.4050159
20
210_C6H9NO2S2_1-0-16-17 (60,) energy =   -1235.5381853
S           2.5477432    -1.9287419     0.4604627
N           3.9130585    -0.9163417     0.4143190
C           5.0918710    -1.5119628    -0.2319560
H           4.7930969    -1.9805305    -1.1691482
H           5.5931996    -2.2562581     0.4040999
H           5.7943303    -0.7003545    -0.4453141
C           4.2055481    -0.2547766     1.6913306
H           3.2976803     0.2082770     2.0856529
H           4.9367262     0.5361397     1.4987806
H           4.6080593    -0.9471752     2.4432043
O           2.4482571    -2.6534023     1.7346509
O           2.5383155    -2.6588931    -0.8089540
C          -0.7288997     0.3198852     1.1110402
H          -1.5940820     0.5273791     1.7306186
C           0.2417861    -0.6777220     1.4117627
H           0.2192045    -1.3347702     2.2728133
C           1.2395091    -0.7312409     0.4713245
S           1.0029266     0.4289291    -0.8056377
C          -0.4489290     0.9925822    -0.0493401
H          -1.0113049     1.7970986    -0.5056587
20
210_C6H9NO2S2_1-0-16-17 (75,) energy =   -1235.5379978
S           2.5318410    -1.9247297     0.3720435
N           3.8963167    -0.9087521     0.4306130
C           5.0964461    -1.4723489    -0.2058716
H           4.8313377    -1.8833109    -1.1795560
H           5.5717283    -2.2556445     0.4029633
H           5.8089883    -0.6535610    -0.3456225
C           4.1452694    -0.3218540     1.7518463
H           3.2293254     0.1369277     2.1322709
H           4.8952171     0.4656822     1.6309131
H           4.5066070    -1.0588213     2.4820406
O           2.4051668    -2.7148344     1.6039669
O           2.5617351    -2.5760357    -0.9392169
C          -0.6494206     0.4243373     1.1528477
H          -1.4195633     0.7333768     1.8506041
C           0.3551403    -0.5388906     1.4538668
H           0.4491296    -1.0722507     2.3922560
C           1.2073289    -0.7471504     0.3984887
S           0.7814391     0.2122751    -0.9904410
C          -0.5415641     0.9136681    -0.1226048
H          -1.1724848     1.6452781    -0.6108653
20
210_C6H9NO2S2_1-0-16-17 (90,) energy =   -1235.5371492
S           2.5123984    -1.9154484     0.3331376
N           3.8772761    -0.9077853     0.4836759
C           5.0834381    -1.4218174    -0.1830620
H           4.8280492    -1.7558704    -1.1882063
H           5.5529747    -2.2507363     0.3670340
H           5.7973615    -0.5952851    -0.2522227
C           4.1126241    -0.4174319     1.8454438
H           3.2038347     0.0486770     2.2341302
H           4.8895089     0.3510793     1.7915965
H           4.4327846    -1.2106805     2.5344292
O           2.3654397    -2.7648969     1.5222419
O           2.5682383    -2.4932951    -1.0114204
C          -0.5977792     0.5176628     1.1672668
H          -1.2851952     0.9260437     1.8995560
C           0.4529662    -0.3894879     1.4831549
H           0.6556201    -0.7845837     2.4716183
C           1.1785184    -0.7495369     0.3748329
S           0.5610915    -0.0215299    -1.0803451
C          -0.6564612     0.8058206    -0.1714364
H          -1.3604875     1.4490688    -0.6834812
20
210_C6H9NO2S2_1-0-16-17 (105,) energy =   -1235.5367395
S           2.4464257    -1.9696648     0.9588433
N           3.8055451    -0.9512004     1.0947654
C           4.3884195    -0.5617744    -0.1945949
H           3.6111948    -0.1642353    -0.8517425
H           4.8918582    -1.3959733    -0.7019196
H           5.1121720     0.2366235    -0.0047442
C           4.8000675    -1.4063420     2.0787546
H           4.2968216    -1.6717091     3.0078931
H           5.4805539    -0.5700763     2.2668529
H           5.3863553    -2.2668324     1.7237611
O           2.1468968    -2.4303773     2.3162983
O           2.6080731    -2.9234705    -0.1474232
C          -0.4858051     0.7777512     0.5728134
H          -1.1283687     1.5192574     1.0343244
C           0.5073323     0.0409321     1.2757988
H           0.7191642     0.1388982     2.3340546
C           1.1764848    -0.8362177     0.4603530
S           0.5914138    -0.7871721    -1.1791591
C          -0.5489893     0.4417152    -0.7554292
H          -1.2128877     0.8399754    -1.5118294
20
210_C6H9NO2S2_1-0-16-17 (120,) energy =   -1235.5368474
S           2.4477362    -2.0092277     0.9125454
N           3.7772999    -0.9705678     1.1351246
C           4.3559366    -0.4718815    -0.1182817
H           3.5688844    -0.0559478    -0.7520741
H           4.8899871    -1.2518714    -0.6778724
H           5.0517846     0.3342956     0.1330873
C           4.7774388    -1.4715362     2.0905294
H           4.2746654    -1.8197900     2.9922887
H           5.4337175    -0.6342301     2.3473654
H           5.3890542    -2.2866629     1.6764257
O           2.1318721    -2.5504086     2.2360867
O           2.6432714    -2.9085869    -0.2341015
C          -0.3953281     0.8345778     0.5119420
H          -0.9450516     1.6671701     0.9366261
C           0.6563004     0.1533917     1.1851014
H           1.0104767     0.3920508     2.1811297
C           1.1861263    -0.8598523     0.4263553
S           0.3976740    -1.0075963    -1.1189199
C          -0.6427834     0.3184556    -0.7348286
H          -1.3846662     0.6428677    -1.4531223
20
210_C6H9NO2S2_1-0-16-17 (135,) energy =   -1235.5366424
S           2.4629327    -2.0181090     0.8435582
N           3.7610053    -0.9654628     1.1541512
C           4.3782239    -0.4109317    -0.0572031
H           3.6063332    -0.0029551    -0.7140708
H           4.9617909    -1.1572084    -0.6130161
H           5.0356272     0.4089778     0.2478300
C           4.7308820    -1.4708532     2.1376775
H           4.1981965    -1.8666066     3.0017666
H           5.3491898    -0.6249306     2.4538101
H           5.3850417    -2.2523204     1.7241118
O           2.1288436    -2.6422034     2.1258109
O           2.6971018    -2.8548479    -0.3422942
C          -0.3267874     0.8859755     0.4764839
H          -0.7942837     1.7849208     0.8626511
C           0.7983866     0.2562931     1.0776082
H           1.2954911     0.6031597     1.9757327
C           1.2021825    -0.8562434     0.3827986
S           0.2012196    -1.1628996    -1.0087402
C          -0.7572984     0.2299921    -0.6485123
H          -1.5839314     0.4927739    -1.2959392
20
210_C6H9NO2S2_1-0-16-17 (150,) energy =   -1235.5359553
S           2.4803198    -2.0409255     0.7360196
N           3.7401956    -0.9765082     1.1462172
C           4.4204840    -0.3864552    -0.0144898
H           3.6829410     0.0136677    -0.7138887
H           5.0558230    -1.1098244    -0.5427837
H           5.0375759     0.4427602     0.3449123
C           4.6555140    -1.4808709     2.1812676
H           4.0777131    -1.8975231     3.0053388
H           5.2396135    -0.6297741     2.5450369
H           5.3463122    -2.2460516     1.7985189
O           2.1316673    -2.7593728     1.9643709
O           2.7636381    -2.7956341    -0.4923670
C          -0.2714968     0.9122263     0.4540518
H          -0.6608518     1.8621290     0.8031463
C           0.9217200     0.3145321     0.9491034
H           1.5517650     0.7353431     1.7231650
C           1.2031680    -0.8757113     0.3262479
S          -0.0015701    -1.2968146    -0.8594894
C          -0.8764770     0.1548606    -0.5150803
H          -1.7859087     0.3727018    -1.0600198
20
210_C6H9NO2S2_1-0-16-17 (165,) energy =   -1235.5347203
S           2.5062879    -2.0477767     0.6003152
N           3.7277431    -0.9852997     1.1110707
C           4.4891104    -0.3761792     0.0118350
H           3.8051360     0.0114872    -0.7459673
H           5.1796461    -1.0846480    -0.4646131
H           5.0592061     0.4626203     0.4232583
C           4.5594957    -1.4762590     2.2195599
H           3.9223574    -1.9040225     2.9923030
H           5.0980662    -0.6167335     2.6309666
H           5.2914498    -2.2303636     1.8964042
O           2.1515037    -2.8724209     1.7584483
O           2.8388262    -2.6932342    -0.6757227
C          -0.2259481     0.9383910     0.4199148
H          -0.5463725     1.9311219     0.7158187
C           1.0234442     0.3642934     0.7919982
H           1.7661248     0.8450538     1.4161334
C           1.1947374    -0.8927212     0.2690468
S          -0.1873395    -1.4081078    -0.6599750
C          -0.9825910     0.0978362    -0.3525069
H          -1.9630883     0.2788557    -0.7734872
20
210_C6H9NO2S2_1-0-16-17 (180,) energy =   -1235.5332860
S           2.5379244    -2.0132172     0.4228354
N           3.7290033    -0.9806944     1.0381699
C           4.6343465    -0.4029514     0.0364801
H           4.0664503    -0.0495031    -0.8252678
H           5.3879268    -1.1214729    -0.3123599
H           5.1400036     0.4522363     0.4962419
C           4.3822574    -1.4127651     2.2803603
H           3.6399037    -1.8155627     2.9678205
H           4.8513336    -0.5330906     2.7328040
H           5.1543153    -2.1751277     2.1045577
O           2.2231861    -3.0042333     1.4553107
O           2.8989085    -2.4504546    -0.9295980
C          -0.2125577     0.9720311     0.4238838
H          -0.4724520     2.0014549     0.6440920
C           1.0814599     0.4167498     0.6469689
H           1.9217383     0.9537877     1.0678862
C           1.1524000    -0.9020082     0.2784406
S          -0.3716785    -1.4931859    -0.3285327
C          -1.0949737     0.0628640    -0.0933187
H          -2.1345904     0.2126542    -0.3542384
