20
417_C8H8N2O2_2-4-10-11 (-165,) energy =    -569.6470216
C           5.6873617     1.7592308     0.5384642
H           6.5515776     2.4111423     0.6286786
C           4.4562870     2.1687147     1.0348761
H           4.4000526     3.1264470     1.5409576
C           3.3059492     1.3546364     0.9764533
C           3.4170843     0.0765905     0.3601137
C           4.6662670    -0.2990499    -0.1623787
H           4.7205278    -1.2581656    -0.6636823
C           5.7910977     0.5118936    -0.0725059
H           6.7389729     0.1715082    -0.4799198
C           2.0138945     1.9690642     1.4573690
O           0.9849503     1.3465422     1.7240646
N           2.0012564     3.3389311     1.5719723
H           1.0860763     3.7254895     1.7648474
H           2.6155887     3.9097648     1.0110093
C           2.3608580    -1.0049732     0.1002069
O           2.4847133    -1.7236817    -0.8885174
N           1.4083905    -1.2165711     1.0432954
H           0.7024778    -1.8925256     0.7784688
H           1.1243852    -0.4268213     1.6213148
20
417_C8H8N2O2_2-4-10-11 (-150,) energy =    -569.6497033
C           5.7073064     1.7498929     0.5733028
H           6.5784899     2.3906031     0.6767301
C           4.4785460     2.1629508     1.0750736
H           4.4154205     3.1176367     1.5873997
C           3.3265228     1.3546803     0.9978775
C           3.4250805     0.0905005     0.3580650
C           4.6687877    -0.2855145    -0.1748643
H           4.7128617    -1.2324115    -0.7003857
C           5.8008028     0.5137126    -0.0627400
H           6.7470490     0.1741155    -0.4746220
C           2.0515229     1.9582304     1.5335068
O           1.1202663     1.3280444     2.0356532
N           1.9699254     3.3244419     1.4432350
H           1.0746808     3.7213432     1.6975691
H           2.5185872     3.8295368     0.7632232
C           2.3409872    -0.9502613     0.0693531
O           2.4325013    -1.6351256    -0.9471635
N           1.3826850    -1.1520147     1.0054681
H           0.6503543    -1.7990218     0.7433731
H           1.1824258    -0.4216598     1.6872231
20
417_C8H8N2O2_2-4-10-11 (-135,) energy =    -569.6511131
C           5.7082972     1.7425997     0.6233103
H           6.5836822     2.3735299     0.7494831
C           4.4780085     2.1531496     1.1271107
H           4.4061944     3.1012914     1.6514803
C           3.3264616     1.3519242     1.0127580
C           3.4215771     0.1047156     0.3470467
C           4.6633488    -0.2669221    -0.1903568
H           4.7046703    -1.2000179    -0.7407810
C           5.7989383     0.5233050    -0.0457748
H           6.7469728     0.1902520    -0.4589299
C           2.0620003     1.9265022     1.6038121
O           1.2647498     1.3030476     2.3052882
N           1.8702660     3.2560122     1.3526630
H           1.0019789     3.6599862     1.6778408
H           2.3615138     3.7230318     0.6052123
C           2.3154813    -0.9004490     0.0381372
O           2.3840160    -1.5703687    -0.9901849
N           1.3402099    -1.0718637     0.9613070
H           0.5950000    -1.7076832     0.7117488
H           1.2172864    -0.4144997     1.7289242
20
417_C8H8N2O2_2-4-10-11 (-120,) energy =    -569.6510902
C           5.7194567     1.7062035     0.6670570
H           6.6001107     2.3241415     0.8188120
C           4.4887327     2.1137639     1.1756881
H           4.4146957     3.0514219     1.7192822
C           3.3349309     1.3276554     1.0169653
C           3.4250316     0.0989182     0.3231215
C           4.6651043    -0.2706754    -0.2172792
H           4.7027561    -1.1914480    -0.7886977
C           5.8047857     0.5080513    -0.0405121
H           6.7537265     0.1816506    -0.4568429
C           2.0778653     1.8733754     1.6531717
O           1.4343770     1.2865761     2.5231087
N           1.7467057     3.1324857     1.2529428
H           0.9047671     3.5430311     1.6340764
H           2.1768773     3.5622197     0.4478365
C           2.3026579    -0.8812248     0.0134280
O           2.3708809    -1.5874357    -0.9901061
N           1.2792511    -0.9660909     0.8971123
H           0.5515649    -1.6348071     0.6876390
H           1.2353640    -0.4018579     1.7414090
20
417_C8H8N2O2_2-4-10-11 (-105,) energy =    -569.6499135
C           5.7825912     1.6957549     0.7040888
H           6.6792115     2.2849516     0.8755879
C           4.5627238     2.1195754     1.2276187
H           4.5091747     3.0441946     1.7960142
C           3.3926347     1.3715381     1.0307445
C           3.4543550     0.1622434     0.3067531
C           4.6826767    -0.2274697    -0.2449444
H           4.6990685    -1.1362790    -0.8366063
C           5.8396482     0.5195024    -0.0435603
H           6.7817355     0.1847557    -0.4686875
C           2.1420012     1.9047397     1.6938854
O           1.6511135     1.4034467     2.7037678
N           1.6563057     3.0485667     1.1425454
H           0.8213113     3.4584445     1.5398107
H           2.0090638     3.4066902     0.2676588
C           2.2978860    -0.7734679     0.0116801
O           2.3157961    -1.4842730    -0.9893829
N           1.2745596    -0.8008134     0.9068720
H           0.5453512    -1.4790264     0.7352118
H           1.3178154    -0.3269479     1.8032941
20
417_C8H8N2O2_2-4-10-11 (-90,) energy =    -569.6483009
C           5.8319101     1.6538840     0.7611183
H           6.7466626     2.2054899     0.9597602
C           4.6268110     2.0901682     1.3085673
H           4.6002235     2.9866949     1.9220483
C           3.4364534     1.3927740     1.0657427
C           3.4632415     0.2178655     0.2888158
C           4.6773774    -0.1895671    -0.2808031
H           4.6691414    -1.0753751    -0.9069805
C           5.8545422     0.5144285    -0.0450194
H           6.7875143     0.1735382    -0.4850374
C           2.1818168     1.9222876     1.7268698
O           1.8173603     1.5543722     2.8405608
N           1.5369927     2.8913381     1.0248289
H           0.6702183     3.2591424     1.3946191
H           1.7966856     3.1177880     0.0762151
C           2.2720121    -0.6660910    -0.0058626
O           2.2153621    -1.3240916    -1.0397026
N           1.2890790    -0.7058474     0.9391935
H           0.5369920    -1.3615206     0.7779318
H           1.4028485    -0.3104219     1.8652104
20
417_C8H8N2O2_2-4-10-11 (-75,) energy =    -569.6470394
C           5.8711721     1.6092309     0.8157962
H           6.8039440     2.1188212     1.0410241
C           4.6815827     2.0569679     1.3871487
H           4.6820237     2.9192829     2.0478464
C           3.4693017     1.4171225     1.1023380
C           3.4606458     0.2797154     0.2723106
C           4.6602204    -0.1446003    -0.3155148
H           4.6270764    -1.0054586    -0.9751314
C           5.8579635     0.5118786    -0.0481472
H           6.7804439     0.1638687    -0.5043903
C           2.2182553     1.9708994     1.7491523
O           1.9608180     1.7914695     2.9351679
N           1.4429781     2.7322286     0.9295011
H           0.5549126     3.0639306     1.2821503
H           1.6178531     2.7831720    -0.0632982
C           2.2424834    -0.5627267    -0.0216319
O           2.1176677    -1.1572273    -1.0864576
N           1.3098957    -0.6450721     0.9740684
H           0.5381161    -1.2798628     0.8222400
H           1.4837023    -0.3158557     1.9149538
20
417_C8H8N2O2_2-4-10-11 (-60,) energy =    -569.6483313
C           5.8647638     1.5508916     0.8150807
H           6.8372740     2.0117606     0.9640676
C           4.7143627     2.1994644     1.2581270
H           4.7890257     3.1482318     1.7804362
C           3.4443344     1.6407662     1.0671806
C           3.3396521     0.3966915     0.4130383
C           4.5078882    -0.2641783    -0.0012674
H           4.4213092    -1.2213675    -0.5075336
C           5.7627706     0.3093598     0.1868632
H           6.6527631    -0.2070494    -0.1615477
C           2.2847222     2.4374975     1.6428759
O           2.2402365     2.6691310     2.8447260
N           1.3760769     2.9128566     0.7413620
H           0.5458504     3.3173536     1.1598466
H           1.2249379     2.3485931    -0.0916353
C           2.0135052    -0.2361567     0.0851663
O           1.0878642     0.3721156    -0.4492861
N           1.9269574    -1.5732835     0.3565176
H           1.0266302    -2.0116437     0.2127004
H           2.5626111    -2.0072281     1.0099536
20
417_C8H8N2O2_2-4-10-11 (-45,) energy =    -569.6504047
C           5.8771407     1.5276925     0.8566006
H           6.8562957     1.9614368     1.0395394
C           4.7326893     2.1906969     1.2904665
H           4.8116880     3.1218039     1.8416616
C           3.4502851     1.6764126     1.0533014
C           3.3316086     0.4394486     0.3822880
C           4.4957298    -0.2363133    -0.0230640
H           4.3990419    -1.1851126    -0.5429051
C           5.7594134     0.3052971     0.1953555
H           6.6431995    -0.2244937    -0.1488286
C           2.3221244     2.5226714     1.6235765
O           2.4154770     2.9639417     2.7647021
N           1.2878795     2.8115079     0.7891052
H           0.5015121     3.2821264     1.2192872
H           1.1044138     2.1960220    -0.0008285
C           2.0129168    -0.2086124     0.0445551
O           1.0833978     0.3708847    -0.5164485
N           1.9378983    -1.5395715     0.3417109
H           1.0503301    -1.9979713     0.1830680
H           2.5837179    -1.9643836     0.9906148
20
417_C8H8N2O2_2-4-10-11 (-30,) energy =    -569.6512599
C           5.8845027     1.4955474     0.8958314
H           6.8670964     1.9062467     1.1108232
C           4.7430383     2.1742114     1.3111649
H           4.8209764     3.0960698     1.8766428
C           3.4533527     1.6976086     1.0335981
C           3.3270595     0.4618736     0.3555425
C           4.4888887    -0.2265128    -0.0370243
H           4.3862200    -1.1689060    -0.5671006
C           5.7583127     0.2876687     0.2114074
H           6.6381191    -0.2550325    -0.1228847
C           2.3463277     2.5807035     1.5965930
O           2.5508496     3.2249853     2.6229944
N           1.1947999     2.6722439     0.8895610
H           0.4585759     3.2332121     1.2954295
H           0.9971007     2.0537695     0.1062341
C           2.0170394    -0.2000935     0.0025962
O           1.0924749     0.3547712    -0.5914959
N           1.9474238    -1.5238869     0.3272176
H           1.0709498    -1.9973328     0.1526297
H           2.5950852    -1.9381939     0.9807211
20
417_C8H8N2O2_2-4-10-11 (-15,) energy =    -569.6509895
C           5.8950133     1.4718016     0.9277381
H           6.8792984     1.8662439     1.1643628
C           4.7562103     2.1710730     1.3144667
H           4.8346486     3.0978202     1.8712544
C           3.4624476     1.7184232     1.0154505
C           3.3296385     0.4786696     0.3415902
C           4.4888378    -0.2253379    -0.0304498
H           4.3809546    -1.1650918    -0.5640405
C           5.7625688     0.2660378     0.2425260
H           6.6388419    -0.2932001    -0.0734499
C           2.3677773     2.6303299     1.5624757
O           2.6503155     3.4723385     2.4125132
N           1.1102596     2.4932842     1.0756875
H           0.4381232     3.1741164     1.4014504
H           0.9088843     1.9310085     0.2526007
C           2.0257347    -0.1775631    -0.0482672
O           1.1298471     0.3772031    -0.6849573
N           1.9335262    -1.4953622     0.2909094
H           1.0655370    -1.9713865     0.0841970
H           2.5640773    -1.9121122     0.9592462
20
417_C8H8N2O2_2-4-10-11 (0,) energy =    -569.6497620
C           5.8937262     1.4518114     0.9674533
H           6.8773719     1.8304399     1.2309748
C           4.7570452     2.1766435     1.3106774
H           4.8348796     3.1159252     1.8458154
C           3.4626953     1.7464983     0.9810716
C           3.3263375     0.4946066     0.3268603
C           4.4845515    -0.2265488    -0.0153957
H           4.3766223    -1.1650049    -0.5509743
C           5.7592197     0.2444267     0.2866633
H           6.6332639    -0.3320227    -0.0034837
C           2.3768652     2.6953881     1.4892667
O           2.7014346     3.7041070     2.1116465
N           1.0720842     2.3961003     1.2473127
H           0.4278807     3.1304439     1.5116821
H           0.8223637     1.8029350     0.4593232
C           2.0240829    -0.1558691    -0.0761835
O           1.1141905     0.4155457    -0.6778976
N           1.9406930    -1.4852683     0.2181882
H           1.0708202    -1.9529339     0.0010559
H           2.5769722    -1.9255218     0.8655465
20
417_C8H8N2O2_2-4-10-11 (15,) energy =    -569.6509913
C           5.8798453     1.4385618     0.9460879
H           6.8616133     1.8913973     1.0530815
C           4.7376226     2.2254359     1.0542810
H           4.8108335     3.2936389     1.2234240
C           3.4462510     1.6881462     0.9460539
C           3.3215442     0.3047656     0.6647058
C           4.4845624    -0.4764169     0.5434808
H           4.3821342    -1.5396229     0.3469104
C           5.7543918     0.0736795     0.6963779
H           6.6333067    -0.5597734     0.6144796
C           2.3473297     2.7392994     1.0726134
O           2.6339927     3.9307327     0.9721912
N           1.0807431     2.3224298     1.3148373
H           0.4018867     3.0535833     1.4758544
H           0.8684641     1.3622994     1.5741951
C           2.0214417    -0.4454804     0.4910532
O           1.0936885    -0.4310382     1.3002504
N           1.9694334    -1.2311253    -0.6222603
H           1.1067531    -1.7268502    -0.8031257
H           2.6315295    -1.1227001    -1.3757648
20
417_C8H8N2O2_2-4-10-11 (30,) energy =    -569.6512616
C           5.8876173     1.4288586     0.9797080
H           6.8684070     1.8769660     1.1124594
C           4.7467088     2.2217190     1.0549257
H           4.8242929     3.2914435     1.2142741
C           3.4585675     1.6841363     0.9170230
C           3.3344748     0.3017603     0.6408777
C           4.4966697    -0.4841274     0.5431820
H           4.3961069    -1.5468613     0.3428369
C           5.7631222     0.0635709     0.7271848
H           6.6423530    -0.5718570     0.6679209
C           2.3526108     2.7281883     1.0111719
O           2.5762257     3.8792281     0.6432769
N           1.1786626     2.3512600     1.5719188
H           0.4432070     3.0443422     1.5885897
H           0.9675425     1.3749576     1.7657170
C           2.0268690    -0.4259644     0.4399922
O           1.0739913    -0.3773957     1.2180768
N           1.9915698    -1.2298470    -0.6618096
H           1.1228245    -1.7075275    -0.8612132
H           2.6724161    -1.1395368    -1.4008573
20
417_C8H8N2O2_2-4-10-11 (45,) energy =    -569.6504047
C           5.8824181     1.4409024     1.0350842
H           6.8592187     1.8841716     1.2074947
C           4.7412456     2.2366403     1.0807559
H           4.8220820     3.3047392     1.2529049
C           3.4611046     1.6988321     0.8874110
C           3.3424094     0.3190260     0.6109118
C           4.5044597    -0.4684876     0.5359088
H           4.4073373    -1.5300884     0.3276833
C           5.7647339     0.0785267     0.7604901
H           6.6459179    -0.5556382     0.7208708
C           2.3376851     2.7229092     0.9456385
O           2.4614486     3.7897154     0.3521577
N           1.2709204     2.4212223     1.7333298
H           0.4911842     3.0640877     1.6727042
H           1.0717906     1.4446951     1.9413235
C           2.0251302    -0.3856272     0.4079892
O           1.0663049    -0.2891792     1.1734480
N           1.9849201    -1.2217792    -0.6712177
H           1.1007779    -1.6689721    -0.8746562
H           2.6599401    -1.1404859    -1.4171230
20
417_C8H8N2O2_2-4-10-11 (60,) energy =    -569.6483318
C           5.8682341     1.4328526     1.0814696
H           6.8368246     1.8752215     1.2971460
C           4.7219004     2.2236834     1.1109105
H           4.7961486     3.2870075     1.3168279
C           3.4566508     1.6809326     0.8537069
C           3.3519242     0.3063963     0.5597957
C           4.5173199    -0.4755606     0.5014255
H           4.4312529    -1.5351687     0.2780254
C           5.7671890     0.0768045     0.7694924
H           6.6540023    -0.5500386     0.7418740
C           2.3030612     2.6706352     0.8757461
O           2.2955433     3.6161103     0.0972147
N           1.3562201     2.4688643     1.8387377
H           0.5332950     3.0533850     1.7426722
H           1.1865190     1.5038872     2.1131681
C           2.0268679    -0.3796445     0.3585333
O           1.0726492    -0.2444775     1.1226636
N           1.9730529    -1.2343770    -0.7063434
H           1.0787098    -1.6626914    -0.9060349
H           2.6434731    -1.1662871    -1.4579292
20
417_C8H8N2O2_2-4-10-11 (75,) energy =    -569.6470394
C           5.8730410     1.5101924     1.1368433
H           6.8055828     2.0370849     1.3191169
C           4.6963453     2.2311885     0.9429701
H           4.7062442     3.3166989     0.9839407
C           3.4843135     1.5687444     0.7142955
C           3.4645067     0.1634362     0.6280823
C           4.6503425    -0.5501138     0.8498957
H           4.6077748    -1.6334868     0.8079391
C           5.8470658     0.1141716     1.1021190
H           6.7591386    -0.4539568     1.2620938
C           2.2471764     2.4201523     0.5278798
O           2.0300779     3.0404628    -0.5080668
N           1.4360279     2.4919775     1.6184689
H           0.5552683     2.9811656     1.5289933
H           1.5784930     1.8966560     2.4210416
C           2.2490278    -0.6608609     0.2771182
O           2.0983579    -1.7963922     0.7138454
N           1.3498179    -0.0803409    -0.5727863
H           0.5821918    -0.6585113    -0.8860340
H           1.5490654     0.7713118    -1.0815548
20
417_C8H8N2O2_2-4-10-11 (90,) energy =    -569.6483009
C           5.8314607     1.5101341     1.2060999
H           6.7445826     2.0526302     1.4350237
C           4.6386569     2.2072239     1.0228163
H           4.6195799     3.2892648     1.1210477
C           3.4506465     1.5269854     0.7258644
C           3.4684578     0.1262788     0.5760419
C           4.6691993    -0.5628039     0.7950811
H           4.6529254    -1.6443328     0.7123028
C           5.8437120     0.1181642     1.1012240
H           6.7666916    -0.4342410     1.2535923
C           2.2107024     2.3688570     0.5128450
O           1.8868799     2.7989105    -0.5910984
N           1.5308833     2.6743924     1.6496004
H           0.6714633     3.2021094     1.5706405
H           1.7571636     2.2416123     2.5328256
C           2.2804306    -0.7307407     0.2000749
O           2.1997265    -1.8961243     0.5747311
N           1.3287207    -0.1491884    -0.5853639
H           0.5807553    -0.7496564    -0.9040073
H           1.4666028     0.7445970    -1.0424727
20
417_C8H8N2O2_2-4-10-11 (105,) energy =    -569.6499135
C           5.7797918     1.5065377     1.2750578
H           6.6734233     2.0608753     1.5482355
C           4.5716328     2.1789234     1.1017539
H           4.5237964     3.2541388     1.2517066
C           3.4060231     1.4887521     0.7378208
C           3.4608953     0.0949459     0.5264887
C           4.6761480    -0.5692006     0.7434960
H           4.6858990    -1.6466959     0.6203037
C           5.8288054     0.1231558     1.1028436
H           6.7612871    -0.4151139     1.2479671
C           2.1700935     2.3347076     0.5257343
O           1.7183966     2.5970905    -0.5874833
N           1.6517613     2.8693740     1.6631348
H           0.8244094     3.4467001     1.5908925
H           1.9716307     2.5841083     2.5766034
C           2.3082914    -0.8025464     0.1189902
O           2.3038536    -1.9884628     0.4372269
N           1.3144617    -0.2428140    -0.6214925
H           0.5893320    -0.8675043    -0.9457366
H           1.3798765     0.6932432    -1.0081577
20
417_C8H8N2O2_2-4-10-11 (120,) energy =    -569.6510902
C           5.7153775     1.4915972     1.3081358
H           6.5920389     2.0556474     1.6143046
C           4.4961170     2.1420733     1.1355812
H           4.4268453     3.2117287     1.3122611
C           3.3485091     1.4467342     0.7185502
C           3.4329593     0.0568840     0.4725533
C           4.6600401    -0.5846852     0.6940742
H           4.6918361    -1.6587046     0.5483741
C           5.7942102     0.1166100     1.0920405
H           6.7337061    -0.4096958     1.2359366
C           2.1051286     2.2852372     0.5349667
O           1.4976171     2.3940605    -0.5300627
N           1.7445061     3.0035070     1.6346251
H           0.9096962     3.5711407     1.5750013
H           2.1430032     2.8171196     2.5425759
C           2.3145557    -0.8844947     0.0491218
O           2.3602558    -2.0689475     0.3738544
N           1.3210500    -0.3764091    -0.7191597
H           0.5961091    -1.0178984    -1.0081911
H           1.2965043     0.5969128    -1.0109869
20
417_C8H8N2O2_2-4-10-11 (135,) energy =    -569.6511131
C           5.7023216     1.4918645     1.3646310
H           6.5727227     2.0496817     1.6985987
C           4.4832905     2.1415370     1.1977034
H           4.4154690     3.2069956     1.3959267
C           3.3395642     1.4627839     0.7369562
C           3.4301857     0.0765819     0.4576996
C           4.6591021    -0.5646393     0.6756782
H           4.6954118    -1.6348087     0.5060870
C           5.7879906     0.1250645     1.1056176
H           6.7267792    -0.4043185     1.2428054
C           2.0869579     2.2947980     0.6062714
O           1.3209044     2.2695138    -0.3575212
N           1.8694623     3.1609512     1.6406349
H           1.0066187     3.6881054     1.6190119
H           2.3303353     3.0394566     2.5299879
C           2.3284310    -0.8837615     0.0182548
O           2.3732008    -2.0560591     0.3852021
N           1.3854134    -0.4176818    -0.8339583
H           0.6412568    -1.0592172    -1.0717541
H           1.2781700     0.5793012    -1.0100192
20
417_C8H8N2O2_2-4-10-11 (150,) energy =    -569.6497034
C           5.6996734     1.4656195     1.4077627
H           6.5650209     2.0165104     1.7653372
C           4.4820822     2.1159426     1.2440733
H           4.4224841     3.1786771     1.4560423
C           3.3391425     1.4554792     0.7502158
C           3.4342444     0.0726802     0.4403001
C           4.6652842    -0.5691129     0.6520808
H           4.7053166    -1.6340676     0.4546012
C           5.7894611     0.1068468     1.1126202
H           6.7265858    -0.4267628     1.2445776
C           2.0738574     2.2746076     0.6803321
O           1.1676196     2.1184261    -0.1387304
N           1.9710734     3.2704853     1.6178841
H           1.0791284     3.7473044     1.6454006
H           2.4909544     3.2207285     2.4814889
C           2.3555807    -0.9024107    -0.0366487
O           2.4238668    -2.0789190     0.3124707
N           1.4303848    -0.4516211    -0.9176483
H           0.6988385    -1.1098852    -1.1524849
H           1.2421390     0.5476390    -0.9836347
20
417_C8H8N2O2_2-4-10-11 (165,) energy =    -569.6470216
C           5.6785104     1.4507863     1.4399041
H           6.5363325     2.0019342     1.8145694
C           4.4584845     2.0949641     1.2779807
H           4.4055617     3.1559963     1.4969373
C           3.3179001     1.4419953     0.7660109
C           3.4264959     0.0633510     0.4295956
C           4.6633357    -0.5715548     0.6337633
H           4.7144568    -1.6305851     0.4101714
C           5.7794725     0.0993001     1.1186784
H           6.7183728    -0.4320946     1.2467488
C           2.0336989     2.2348236     0.7446091
O           1.0222261     1.9354619     0.1084514
N           2.0063200     3.3633911     1.5290821
H           1.0926677     3.7933365     1.5966570
H           2.5947940     3.4395440     2.3450664
C           2.3771536    -0.9250968    -0.0946211
O           2.4791631    -2.1103008     0.2125379
N           1.4580707    -0.4774936    -0.9869829
H           0.7532528    -1.1600791    -1.2373171
H           1.1820328     0.5022385    -0.9380241
20
417_C8H8N2O2_2-4-10-11 (180,) energy =    -569.6439495
C           5.4652578     1.3793410     1.8072580
H           6.2711379     1.8693496     2.3460446
C           4.2365923     2.0131660     1.6735120
H           4.1200883     2.9762513     2.1571629
C           3.1419798     1.4256930     1.0063611
C           3.3235862     0.1304445     0.4402416
C           4.5841881    -0.4771879     0.5678309
H           4.7089704    -1.4469383     0.1012400
C           5.6428896     0.1205106     1.2403772
H           6.5962528    -0.3943907     1.3192014
C           1.9040128     2.2695077     0.8169614
O           0.8771082     1.8866387     0.2541257
N           1.9450736     3.5638587     1.2784621
H           1.1452415     4.1149568     0.9943429
H           2.8136696     4.0679878     1.3648402
C           2.3595244    -0.7783810    -0.3373961
O           2.8265834    -1.5716898    -1.1500301
N           1.0447525    -0.7848378     0.0114121
H           0.4710824    -1.3600253    -0.5942772
H           0.6479819     0.1025352     0.3135862
