35
120_C19H16_8-7-16-17 (-165,) energy =    -733.6540584
C           5.2040399     1.2920808     2.4214888
H           5.8719010     2.0108767     2.8884801
C           5.4407737    -0.0760045     2.5291919
H           6.2924622    -0.4554993     3.0869653
C           4.5950368    -0.9504765     1.8577314
H           4.8285344    -2.0112370     1.8441691
C           3.4903641    -0.5089088     1.1038336
C           3.1479093     0.8774616     1.1210308
C           4.0980752     1.7414431     1.7097060
H           3.8998007     2.8081228     1.7097656
C           0.3972748     2.6321334    -1.7277487
H          -0.2418028     3.0483341    -2.5019832
C           1.5577985     3.2920241    -1.3267944
H           1.8523518     4.2287141    -1.7925549
C           2.3703895     2.7219759    -0.3536368
H           3.3121996     3.2115696    -0.1361422
C           2.0523491     1.5075053     0.3005595
C           0.8593807     0.8552788    -0.1087448
C           0.2432875    -0.3070659     0.6478952
H           0.1954032    -1.2195057     0.0457057
H          -0.7844957    -0.0464255     0.9294197
H           0.7862258    -0.5381468     1.5655806
C           0.0624296     1.4345641    -1.1069548
H          -0.8615465     0.9293162    -1.3809337
C           1.9869340    -3.5925292    -1.5073875
H           1.6325836    -4.3780076    -2.1695609
C           2.4009837    -2.3648945    -2.0293640
H           2.3782770    -2.1940724    -3.1025748
C           2.8554855    -1.3553756    -1.1814754
H           3.1874962    -0.4094816    -1.5976625
C           2.8987024    -1.5498070     0.2084709
C           2.4952959    -2.7944606     0.7181949
H           2.5230727    -2.9627237     1.7918503
C           2.0396355    -3.8047891    -0.1286694
H           1.7232313    -4.7567138     0.2899988
35
120_C19H16_8-7-16-17 (-150,) energy =    -733.6635721
C           5.0903990     1.3031751     2.5279729
H           5.7022862     2.0236146     3.0640674
C           5.3645315    -0.0607706     2.6058563
H           6.1925284    -0.4296086     3.2050601
C           4.5884019    -0.9459531     1.8656633
H           4.8486845    -2.0005294     1.8513449
C           3.5164537    -0.5164904     1.0610104
C           3.1585350     0.8616154     1.0699543
C           4.0197206     1.7422627     1.7568813
H           3.7856268     2.8027183     1.7479370
C           0.3585022     2.6200475    -1.7153062
H          -0.3152097     3.0476556    -2.4531643
C           1.5972992     3.2062831    -1.4581854
H           1.9139576     4.0933773    -2.0002514
C           2.4454149     2.6297419    -0.5188213
H           3.4328469     3.0573916    -0.3770729
C           2.0902000     1.4771839     0.2160572
C           0.8271026     0.8914262    -0.0479140
C           0.2473097    -0.2430928     0.7719610
H           0.2151346    -1.1828040     0.2110650
H          -0.7816436     0.0008953     1.0618169
H           0.8172505    -0.4224940     1.6860962
C          -0.0110183     1.4829990    -1.0041805
H          -0.9888671     1.0381624    -1.1772034
C           1.9940724    -3.5687179    -1.5755390
H           1.6297413    -4.3456935    -2.2423274
C           2.3924350    -2.3315437    -2.0867369
H           2.3467854    -2.1444568    -3.1564540
C           2.8589109    -1.3326169    -1.2329222
H           3.1768847    -0.3788004    -1.6416152
C           2.9331099    -1.5485655     0.1527364
C           2.5410346    -2.8017065     0.6517815
H           2.5871025    -2.9851636     1.7222092
C           2.0729606    -3.8009949    -0.2013620
H           1.7665812    -4.7597393     0.2090871
35
120_C19H16_8-7-16-17 (-135,) energy =    -733.6693754
C           5.0204187     1.2512765     2.5984582
H           5.5813296     1.9638618     3.1972004
C           5.3161724    -0.1098118     2.6514777
H           6.1133211    -0.4795480     3.2907786
C           4.6009790    -0.9931409     1.8484678
H           4.8747458    -2.0443853     1.8361961
C           3.5698626    -0.5616303     0.9941245
C           3.2155514     0.8138613     0.9961161
C           3.9931694     1.6950579     1.7709201
H           3.7399733     2.7515173     1.7579096
C           0.3686107     2.6189302    -1.6972864
H          -0.3339537     3.0700481    -2.3931158
C           1.6691941     3.1096503    -1.5843614
H           2.0008925     3.9446452    -2.1957584
C           2.5496170     2.5110953    -0.6878539
H           3.5728155     2.8708462    -0.6247453
C           2.1648516     1.4234009     0.1204101
C           0.8424943     0.9321621     0.0104302
C           0.2879504    -0.1608187     0.8975463
H           0.2884755    -1.1339954     0.3943895
H          -0.7482976     0.0665815     1.1719458
H           0.8650361    -0.2703173     1.8194493
C          -0.0287916     1.5502309    -0.8980085
H          -1.0512184     1.1842706    -0.9654862
C           2.0158555    -3.5728343    -1.6714709
H           1.6397148    -4.3392632    -2.3438580
C           2.4124580    -2.3307205    -2.1712354
H           2.3533423    -2.1286036    -3.2375425
C           2.8935839    -1.3448603    -1.3104646
H           3.2093755    -0.3877703    -1.7125091
C           2.9875180    -1.5793264     0.0713369
C           2.5928310    -2.8369600     0.5586875
H           2.6487697    -3.0336231     1.6261876
C           2.1095735    -3.8229121    -0.3014070
H           1.8026133    -4.7850027     0.1006905
35
120_C19H16_8-7-16-17 (-120,) energy =    -733.6720512
C           4.8600963     1.2167115     2.6791851
H           5.3554930     1.9224205     3.3406091
C           5.2010733    -0.1347567     2.6998990
H           5.9709950    -0.5004448     3.3740422
C           4.5626419    -1.0154414     1.8308881
H           4.8623216    -2.0595619     1.8120506
C           3.5686915    -0.5869038     0.9329980
C           3.1947073     0.7808926     0.9390424
C           3.8726753     1.6590048     1.8019825
H           3.5873852     2.7075589     1.7978058
C           0.3135766     2.5925464    -1.7047880
H          -0.4073202     3.0547693    -2.3740926
C           1.6504107     2.9879166    -1.7234526
H           1.9893981     3.7604215    -2.4085802
C           2.5544350     2.3812166    -0.8539011
H           3.6002414     2.6774090    -0.8704352
C           2.1540319     1.3728986     0.0394739
C           0.7954756     0.9831043     0.0712634
C           0.2686179    -0.0414419     1.0498414
H           0.4037579    -1.0638535     0.6784436
H          -0.8020495     0.1087310     1.2233881
H           0.7819964     0.0202227     2.0146307
C          -0.0987372     1.6078708    -0.8085597
H          -1.1469858     1.3185888    -0.7776878
C           2.0521868    -3.5739801    -1.7813921
H           1.6826779    -4.3342424    -2.4643629
C           2.4478285    -2.3255355    -2.2651372
H           2.3943606    -2.1118731    -3.3294731
C           2.9201319    -1.3470660    -1.3910745
H           3.2347003    -0.3851671    -1.7817187
C           3.0083021    -1.5963137    -0.0113714
C           2.6114136    -2.8600339     0.4602904
H           2.6605023    -3.0680348     1.5259282
C           2.1362054    -3.8378778    -0.4133906
H           1.8281986    -4.8045631    -0.0233072
35
120_C19H16_8-7-16-17 (-105,) energy =    -733.6724630
C           4.7268907     1.1700432     2.7551693
H           5.1581014     1.8652363     3.4705272
C           5.1226921    -0.1665246     2.7385760
H           5.8736308    -0.5284925     3.4358064
C           4.5572142    -1.0389811     1.8120568
H           4.8853834    -2.0742898     1.7806052
C           3.5898171    -0.6121358     0.8853334
C           3.1857194     0.7450421     0.9058608
C           3.7677384     1.6110164     1.8452400
H           3.4444773     2.6484979     1.8611323
C           0.2591433     2.5381421    -1.6960069
H          -0.4785318     3.0025843    -2.3452080
C           1.6148984     2.8208201    -1.8535410
H           1.9504923     3.5086246    -2.6251754
C           2.5426011     2.2154677    -1.0064146
H           3.6017755     2.4340649    -1.1193703
C           2.1423489     1.3155315    -0.0072549
C           0.7672590     1.0443087     0.1684041
C           0.2732386     0.1218888     1.2586495
H           0.5103617    -0.9255490     1.0368889
H          -0.8126062     0.2010382     1.3719018
H           0.7348665     0.3565461     2.2242043
C          -0.1504197     1.6634948    -0.6897612
H          -1.2105560     1.4594119    -0.5566930
C           2.0991875    -3.5872589    -1.8572332
H           1.7330680    -4.3449014    -2.5449447
C           2.5175005    -2.3445440    -2.3364019
H           2.4847561    -2.1328494    -3.4019691
C           2.9851487    -1.3692532    -1.4563147
H           3.3164975    -0.4120180    -1.8437741
C           3.0472309    -1.6164326    -0.0749554
C           2.6263950    -2.8742437     0.3922832
H           2.6565285    -3.0804820     1.4589905
C           2.1551539    -3.8486136    -0.4875224
H           1.8287742    -4.8106110    -0.1008221
35
120_C19H16_8-7-16-17 (-90,) energy =    -733.6712709
C           4.6269704     1.1238926     2.8281168
H           4.9968936     1.8013892     3.5930712
C           5.0851524    -0.1914013     2.7650956
H           5.8245789    -0.5526458     3.4749358
C           4.5899267    -1.0454044     1.7828381
H           4.9517154    -2.0685508     1.7277932
C           3.6395140    -0.6166461     0.8394981
C           3.1906524     0.7243719     0.8924601
C           3.6841968     1.5659249     1.9014978
H           3.3163154     2.5875842     1.9496627
C           0.2293249     2.5123262    -1.6729777
H          -0.5187756     2.9812461    -2.3068789
C           1.5858365     2.6528332    -1.9604652
H           1.9109251     3.2356846    -2.8181834
C           2.5284153     2.0449153    -1.1310675
H           3.5893134     2.1631355    -1.3388081
C           2.1387620     1.2798981    -0.0230305
C           0.7662072     1.1548516     0.2833241
C           0.2984282     0.3598128     1.4804546
H           0.5514651    -0.7023288     1.3760433
H          -0.7868568     0.4357923     1.5998919
H           0.7684614     0.7083044     2.4071765
C          -0.1669416     1.7721341    -0.5591150
H          -1.2257354     1.6731628    -0.3302688
C           2.2050744    -3.5736995    -1.9524812
H           1.8489101    -4.3269459    -2.6502054
C           2.6702999    -2.3438387    -2.4213741
H           2.6842769    -2.1381226    -3.4885374
C           3.1248184    -1.3740347    -1.5284388
H           3.4934925    -0.4275502    -1.9078874
C           3.1255747    -1.6136233    -0.1448121
C           2.6598532    -2.8590150     0.3120287
H           2.6459850    -3.0594279     1.3802317
C           2.2015637    -3.8280796    -0.5804758
H           1.8392052    -4.7804249    -0.2020037
35
120_C19H16_8-7-16-17 (-75,) energy =    -733.6713096
C           5.9538667     0.5845422    -0.3411460
H           6.8344703     1.1249214    -0.6780584
C           6.0806537    -0.5371614     0.4776891
H           7.0615241    -0.8772899     0.7990688
C           4.9395018    -1.2223190     0.8862029
H           5.0359815    -2.0889526     1.5344469
C           3.6507638    -0.8120652     0.5003789
C           3.5229789     0.3339470    -0.3208860
C           4.6849520     1.0045903    -0.7339772
H           4.5812641     1.8648780    -1.3903657
C          -0.2388094     1.6610633    -1.9444736
H          -1.1854863     1.9983812    -2.3584445
C           0.3568739     0.4892244    -2.4084277
H          -0.1177816    -0.0994533    -3.1888676
C           1.5692415     0.0719242    -1.8611082
H           2.0369164    -0.8431947    -2.2140327
C           2.2062388     0.8118146    -0.8555740
C           1.6043782     1.9980724    -0.3809371
C           2.2457799     2.8332234     0.7059176
H           2.5543553     2.2229062     1.5625232
H           1.5527865     3.5997948     1.0668626
H           3.1483125     3.3442228     0.3490825
C           0.3842709     2.4003124    -0.9392725
H          -0.0856901     3.3107120    -0.5735351
C           0.3533165    -3.2085367     1.9054556
H          -0.4703642    -3.8188334     2.2661966
C           1.4487681    -3.8039984     1.2789464
H           1.4818406    -4.8821232     1.1443576
C           2.5042652    -3.0174975     0.8176080
H           3.3484776    -3.4861678     0.3187275
C           2.4866006    -1.6204772     0.9671592
C           1.3773212    -1.0363986     1.5993377
H           1.3435799     0.0392069     1.7370562
C           0.3234516    -1.8217334     2.0641314
H          -0.5222632    -1.3477454     2.5555171
35
120_C19H16_8-7-16-17 (-60,) energy =    -733.6714594
C           5.9257308     0.6149783    -0.2117834
H           6.8012940     1.1955516    -0.4898349
C           6.0606133    -0.5662073     0.5168882
H           7.0422638    -0.9156912     0.8254799
C           4.9240807    -1.2941400     0.8587129
H           5.0245611    -2.1994347     1.4510472
C           3.6346159    -0.8731374     0.4887198
C           3.4986472     0.3208903    -0.2622424
C           4.6563770     1.0445475    -0.5912724
H           4.5527741     1.9471415    -1.1870073
C          -0.2397927     1.6974329    -1.9017789
H          -1.1756602     2.0481130    -2.3289971
C           0.2554617     0.4341068    -2.2242400
H          -0.2860337    -0.2128201    -2.9091739
C           1.4538802     0.0036113    -1.6611661
H           1.8442949    -0.9789214    -1.9101353
C           2.1813580     0.8145000    -0.7751078
C           1.6817354     2.0953447    -0.4468705
C           2.3903848     3.0210474     0.5200193
H           2.8657540     2.4723712     1.3390096
H           1.6839420     3.7373796     0.9522505
H           3.1808632     3.6035251     0.0298053
C           0.4698162     2.5082279    -1.0182329
H           0.0755009     3.4877910    -0.7562441
C           0.3533115    -3.3195858     1.8414298
H          -0.4659503    -3.9415050     2.1922250
C           1.4360866    -3.8933333     1.1741211
H           1.4634049    -4.9656191     0.9979800
C           2.4869015    -3.0925099     0.7260504
H           3.3219760    -3.5442457     0.1969202
C           2.4752888    -1.7026485     0.9296539
C           1.3785241    -1.1399181     1.6025528
H           1.3526445    -0.0693519     1.7796020
C           0.3302606    -1.9396011     2.0545144
H          -0.5056213    -1.4831002     2.5782182
35
120_C19H16_8-7-16-17 (-45,) energy =    -733.6697720
C           5.8869723     0.7290969    -0.0532484
H           6.7485543     1.3547347    -0.2706121
C           6.0432487    -0.4881988     0.6072010
H           7.0273217    -0.8249735     0.9219246
C           4.9204154    -1.2654098     0.8785839
H           5.0313000    -2.1950300     1.4299664
C           3.6285259    -0.8617842     0.5006289
C           3.4711530     0.3591070    -0.2067844
C           4.6151262     1.1404870    -0.4439101
H           4.5070279     2.0671898    -0.9981470
C          -0.2453728     1.6888407    -1.9440796
H          -1.1674424     2.0255676    -2.4106561
C           0.1887704     0.3721578    -2.0989097
H          -0.3845245    -0.3326428    -2.6950842
C           1.3709811    -0.0346360    -1.4901649
H           1.7163075    -1.0543556    -1.6268425
C           2.1473437     0.8432013    -0.7098209
C           1.7106181     2.1817173    -0.5615911
C           2.4328812     3.2066001     0.2910201
H           3.0217423     2.7428564     1.0865892
H           1.7107880     3.8881229     0.7537908
H           3.1203551     3.8264279    -0.2994780
C           0.5114597     2.5703868    -1.1778357
H           0.1662774     3.5934082    -1.0429262
C           0.4111949    -3.4229752     1.7938890
H          -0.3912945    -4.0731880     2.1318974
C           1.4896108    -3.9487593     1.0816868
H           1.5304067    -5.0117116     0.8579979
C           2.5194874    -3.1117002     0.6505056
H           3.3525193    -3.5256889     0.0881708
C           2.4890694    -1.7327989     0.9154796
C           1.3976499    -1.2183153     1.6343181
H           1.3600949    -0.1566984     1.8583301
C           0.3711259    -2.0543085     2.0697395
H          -0.4610906    -1.6356965     2.6296950
35
120_C19H16_8-7-16-17 (-30,) energy =    -733.6653664
C           5.8607620     0.7360825     0.0779961
H           6.7162433     1.3873745    -0.0801737
C           6.0220370    -0.5186462     0.6599780
H           7.0037711    -0.8652742     0.9710408
C           4.9004129    -1.3177228     0.8639749
H           5.0076393    -2.2742119     1.3680507
C           3.6113065    -0.9019860     0.4919341
C           3.4500504     0.3484242    -0.1694038
C           4.5917557     1.1579949    -0.3110957
H           4.4986038     2.1093790    -0.8203655
C          -0.2489103     1.6968594    -1.9469038
H          -1.1575718     2.0327583    -2.4395633
C           0.1141702     0.3507540    -1.9605785
H          -0.4985777    -0.3835253    -2.4765399
C           1.2832021    -0.0488107    -1.3242372
H           1.5751590    -1.0912215    -1.3782954
C           2.1189082     0.8553897    -0.6339793
C           1.7554674     2.2275074    -0.6446368
C           2.5030313     3.3129090     0.1091761
H           3.0724873     2.9163971     0.9535428
H           1.7931975     4.0519231     0.4964731
H           3.2080742     3.8595889    -0.5308794
C           0.5680114     2.6092775    -1.2877170
H           0.2815343     3.6585348    -1.2598488
C           0.4367493    -3.5231783     1.7725318
H          -0.3534756    -4.1886303     2.1097135
C           1.4815324    -4.0128919     0.9882168
H           1.5084052    -5.0627679     0.7078696
C           2.4964949    -3.1565218     0.5586143
H           3.3045433    -3.5418144    -0.0580527
C           2.4822762    -1.7936440     0.8962370
C           1.4258695    -1.3154825     1.6887916
H           1.4038338    -0.2668533     1.9696255
C           0.4151074    -2.1710352     2.1228420
H          -0.3900935    -1.7812639     2.7401977
35
120_C19H16_8-7-16-17 (-15,) energy =    -733.6581203
C           5.8394125     0.7635518     0.2286234
H           6.6888280     1.4358512     0.1413639
C           6.0036312    -0.5276645     0.7191110
H           6.9808318    -0.8897658     1.0265942
C           4.8814091    -1.3414179     0.8449246
H           4.9813527    -2.3260488     1.2931710
C           3.5966938    -0.9083712     0.4787703
C           3.4358485     0.3745571    -0.1289460
C           4.5753774     1.2017102    -0.1598381
H           4.5034361     2.1809746    -0.6100565
C          -0.2640919     1.7166657    -1.9360922
H          -1.1660305     2.0416116    -2.4479869
C           0.0439789     0.3639037    -1.8139946
H          -0.6026631    -0.3950945    -2.2460564
C           1.2094455    -0.0161554    -1.1600344
H           1.4573011    -1.0688665    -1.1394933
C           2.0979602     0.9070700    -0.5603107
C           1.7912650     2.2882239    -0.7274917
C           2.5621198     3.4326360    -0.0892306
H           3.0760715     3.1300457     0.8267830
H           1.8709132     4.2426723     0.1666597
H           3.3152379     3.8656039    -0.7610050
C           0.6076677     2.6508284    -1.3886673
H           0.3692733     3.7093959    -1.4665520
C           0.4769263    -3.6051155     1.7408075
H          -0.2975997    -4.2897596     2.0759359
C           1.4762804    -4.0444480     0.8721596
H           1.4836485    -5.0742825     0.5243858
C           2.4718320    -3.1635402     0.4456316
H           3.2457197    -3.5095925    -0.2348601
C           2.4807044    -1.8253733     0.8697157
C           1.4718308    -1.3982618     1.7486293
H           1.4708922    -0.3694647     2.0963832
C           0.4812711    -2.2786499     2.1795009
H          -0.2875647    -1.9290660     2.8636943
35
120_C19H16_8-7-16-17 (0,) energy =    -733.6488561
C           5.6745244     1.0120888     0.8749857
H           6.5456184     1.6542847     0.7750381
C           5.7173634    -0.1257877     1.6700941
H           6.6158649    -0.4003967     2.2156995
C           4.5899821    -0.9398911     1.7104141
H           4.6303057    -1.8809810     2.2516458
C           3.4125185    -0.6383052     1.0067438
C           3.3023863     0.6102064     0.3078551
C           4.5034032     1.3425272     0.1963621
H           4.5101709     2.2736874    -0.3418417
C          -0.4908910     2.0224021    -1.3050650
H          -1.4481196     2.4014758    -1.6528240
C          -0.4146293     0.9580733    -0.4142167
H          -1.3143837     0.4906498    -0.0231767
C           0.8293386     0.5104200     0.0132912
H           0.8337661    -0.2606743     0.7668364
C           2.0630138     1.0331717    -0.4461275
C           1.9624448     2.1657240    -1.3170351
C           3.1220502     2.8786608    -1.9960053
H           3.5807954     3.6494687    -1.3628264
H           2.7612442     3.3898232    -2.8939198
H           3.9132754     2.1906546    -2.3079491
C           0.6956911     2.6020444    -1.7367258
H           0.6515495     3.4348265    -2.4345724
C           0.7626187    -4.0414434     0.9225302
H           0.1158868    -4.9144653     0.9015200
C           1.3096221    -3.5421796    -0.2624090
H           1.0948245    -4.0307872    -1.2093085
C           2.1374074    -2.4214948    -0.2376905
H           2.5616606    -2.0389786    -1.1616009
C           2.4340882    -1.7738173     0.9730734
C           1.8908840    -2.2935704     2.1580823
H           2.1152152    -1.8056502     3.1032016
C           1.0569609    -3.4133802     2.1329050
H           0.6394748    -3.7942271     3.0614680
35
120_C19H16_8-7-16-17 (15,) energy =    -733.6581202
C           5.6000792     1.1661016     1.0159159
H           6.4315601     1.8651704     0.9836162
C           5.7056269    -0.0299607     1.7180880
H           6.6189972    -0.2911094     2.2454810
C           4.6270751    -0.9096685     1.7032339
H           4.7196930    -1.8784718     2.1861888
C           3.4348889    -0.6225674     1.0188887
C           3.2771132     0.6498956     0.3888132
C           4.4166976     1.4766400     0.3496684
H           4.3465243     2.4490117    -0.1154717
C          -0.4819867     2.0650538    -1.2311649
H          -1.4313801     2.4581442    -1.5850712
C          -0.4329822     1.1118256    -0.2169522
H          -1.3442171     0.7551591     0.2556421
C           0.7985463     0.6366712     0.2167328
H           0.8093370    -0.0516132     1.0510947
C           2.0291277     1.0400500    -0.3527360
C           1.9664713     2.0442670    -1.3613570
C           3.1575115     2.5486822    -2.1603005
H           3.5897769     3.4689171    -1.7453058
H           2.8399954     2.7867668    -3.1810292
H           3.9604681     1.8097507    -2.2239286
C           0.7124145     2.5086559    -1.7870057
H           0.6845234     3.2428512    -2.5892756
C           0.7670284    -4.0018047     0.7744195
H           0.1116182    -4.8663765     0.7121456
C           1.2406676    -3.3929510    -0.3904625
H           0.9598922    -3.7870131    -1.3637712
C           2.0788481    -2.2823794    -0.3128846
H           2.4458924    -1.8161969    -1.2224516
C           2.4624073    -1.7565626     0.9317487
C           1.9891489    -2.3845824     2.0945952
H           2.2768710    -1.9895077     3.0656037
C           1.1445791    -3.4935417     2.0175788
H           0.7828193    -3.9590884     2.9307952
35
120_C19H16_8-7-16-17 (30,) energy =    -733.6653664
C           5.5438568     1.2566583     1.1286541
H           6.3437639     1.9919092     1.1530658
C           5.6962510     0.0215051     1.7533188
H           6.6183017    -0.2305528     2.2700532
C           4.6570937    -0.9024198     1.6850637
H           4.7875925    -1.8891644     2.1206748
C           3.4549151    -0.6242394     1.0138940
C           3.2653928     0.6631207     0.4362381
C           4.3525502     1.5552024     0.4717955
H           4.2311467     2.5450500     0.0491499
C          -0.4777600     2.0622842    -1.2043222
H          -1.4219584     2.4481697    -1.5795466
C          -0.4420496     1.2198093    -0.0939229
H          -1.3573989     0.9460765     0.4238081
C           0.7804690     0.7440673     0.3647282
H           0.7976362     0.1241070     1.2536260
C           2.0029412     1.0598675    -0.2663371
C           1.9610608     1.9370655    -1.3815449
C           3.1730649     2.3151358    -2.2141834
H           3.6007193     3.2823038    -1.9186907
H           2.8855950     2.4079072    -3.2671608
H           3.9725465     1.5730661    -2.1462305
C           0.7159017     2.4014279    -1.8324461
H           0.6929887     3.0454270    -2.7091050
C           0.7633073    -3.9759862     0.6809715
H           0.0991305    -4.8320079     0.5968701
C           1.1789191    -3.2927405    -0.4644196
H           0.8438387    -3.6198985    -1.4452828
C           2.0280721    -2.1928760    -0.3583492
H           2.3500015    -1.6704773    -1.2541294
C           2.4824446    -1.7528139     0.8957210
C           2.0640069    -2.4538466     2.0381108
H           2.4026493    -2.1236610     3.0168644
C           1.2090006    -3.5520655     1.9332315
H           0.8912203    -4.0746487     2.8318305
35
120_C19H16_8-7-16-17 (45,) energy =    -733.6697724
C           5.5128409     1.3420628     1.2152787
H           6.2875408     2.1002757     1.2924730
C           5.7013298     0.0769546     1.7687556
H           6.6287004    -0.1722863     2.2774222
C           4.6939361    -0.8766078     1.6484393
H           4.8522232    -1.8770285     2.0416595
C           3.4846602    -0.6006132     0.9879493
C           3.2749058     0.6994399     0.4573282
C           4.3167612     1.6364194     0.5653936
H           4.1592030     2.6377164     0.1780344
C          -0.4670759     2.0544805    -1.2036823
H          -1.4103742     2.4193174    -1.6016645
C          -0.4296731     1.3470177    -0.0020072
H          -1.3420475     1.1582083     0.5572388
C           0.7898469     0.8887730     0.4845007
H           0.8188967     0.3539391     1.4283442
C           1.9971052     1.1106007    -0.2048204
C           1.9595254     1.8378824    -1.4189720
C           3.1833995     2.0999730    -2.2747450
H           3.6451165     3.0709469    -2.0526480
H           2.9059285     2.1167060    -3.3342880
H           3.9558365     1.3387841    -2.1367321
C           0.7180862     2.2845630    -1.8964251
H           0.6886136     2.8225527    -2.8417047
C           0.7657805    -3.9221582     0.5905459
H           0.0923909    -4.7692758     0.4907915
C           1.1376699    -3.1828567    -0.5346635
H           0.7590529    -3.4568693    -1.5159589
C           1.9985509    -2.0942032    -0.4083838
H           2.2858705    -1.5290000    -1.2896484
C           2.5092203    -1.7220362     0.8459176
C           2.1318992    -2.4778880     1.9678494
H           2.5112251    -2.1990340     2.9475957
C           1.2659620    -3.5650262     1.8431173
H           0.9811717    -4.1306537     2.7265945
35
120_C19H16_8-7-16-17 (60,) energy =    -733.6714594
C           5.4629525     1.3777258     1.3694271
H           6.2143734     2.1494163     1.5138310
C           5.6743038     0.0844921     1.8461431
H           6.5979378    -0.1709478     2.3586352
C           4.6954635    -0.8863065     1.6515106
H           4.8698524    -1.9017522     1.9964589
C           3.4907237    -0.6012731     0.9850425
C           3.2707924     0.7160767     0.5113386
C           4.2730642     1.6792509     0.7113658
H           4.0934868     2.6944282     0.3686165
C          -0.4474212     2.0439211    -1.2121350
H          -1.3846284     2.3921868    -1.6383913
C          -0.4134423     1.4985016     0.0710770
H          -1.3224117     1.4189329     0.6612508
C           0.7975807     1.0541757     0.5950828
H           0.8294539     0.6297802     1.5944116
C           1.9916536     1.1447688    -0.1382638
C           1.9599876     1.6973495    -1.4388746
C           3.1971298     1.8069704    -2.3057255
H           3.7790582     2.7102562    -2.0823796
H           2.9203833     1.8560740    -3.3640336
H           3.8713774     0.9560926    -2.1673050
C           0.7299734     2.1325668    -1.9520531
H           0.7000749     2.5450537    -2.9583494
C           0.7613183    -3.8960596     0.4588857
H           0.0835446    -4.7353997     0.3278669
C           1.1115019    -3.0976891    -0.6321007
H           0.7115049    -3.3172810    -1.6185775
C           1.9780916    -2.0188327    -0.4656068
H           2.2481316    -1.4092843    -1.3221394
C           2.5166038    -1.7155715     0.7955045
C           2.1588100    -2.5296741     1.8829513
H           2.5565710    -2.3031755     2.8687907
C           1.2880172    -3.6071150     1.7182473
H           1.0193238    -4.2182112     2.5761109
35
120_C19H16_8-7-16-17 (75,) energy =    -733.6713107
C           5.4221613     1.4525398     1.4759474
H           6.1433573     2.2385078     1.6835505
C           5.6783665     0.1362424     1.8585602
H           6.6084465    -0.1219628     2.3579354
C           4.7340194    -0.8522101     1.5946930
H           4.9383166    -1.8803110     1.8807087
C           3.5210250    -0.5640687     0.9436265
C           3.2677483     0.7706800     0.5451487
C           4.2252635     1.7565268     0.8310461
H           4.0102463     2.7846062     0.5508193
C          -0.4724315     2.0511259    -1.1633875
H          -1.4154316     2.3795489    -1.5926200
C          -0.3972025     1.6873922     0.1802528
H          -1.2795297     1.7284719     0.8132843
C           0.8211074     1.2649982     0.7101704
H           0.8865456     0.9749596     1.7553238
C           1.9763723     1.2044142    -0.0810644
C           1.9035134     1.5693829    -1.4434575
C           3.1184501     1.5193555    -2.3443754
H           3.8451659     2.3016230    -2.0933984
H           2.8316989     1.6582839    -3.3915683