35
120_C19H16_4-6-30-28 (-165,) energy =    -733.6657205
C           5.2835547     1.5693099     1.5767984
H           5.9609321     2.3888563     1.8005013
C           5.5363015     0.2817063     2.0445361
H           6.4220226     0.0715792     2.6381381
C           4.6493935    -0.7455851     1.7456257
H           4.9013147    -1.7437921     2.0845762
C           3.4895698    -0.5583422     0.9626260
C           3.2248848     0.7664284     0.5163608
C           4.1356861     1.7917003     0.8239863
H           3.9068207     2.7964361     0.4781067
C          -0.3349549     2.1958208    -1.4424679
H          -1.2290632     2.5721278    -1.9325932
C          -0.3476365     1.9022978    -0.0794706
H          -1.2503847     2.0488600     0.5074653
C           0.8092143     1.4187998     0.5303701
H           0.8073672     1.1864264     1.5918955
C           1.9864308     1.2175602    -0.2031753
C           2.0067658     1.5222432    -1.5820969
C           3.2521137     1.3150723    -2.4154226
H           4.0599251     1.9946766    -2.1192246
H           3.0437362     1.4856076    -3.4762646
H           3.6456257     0.2975736    -2.3058692
C           0.8344917     2.0048164    -2.1786567
H           0.8423830     2.2333982    -3.2421436
C           0.8018919    -3.9431394     0.5187610
H           0.1264707    -4.7890032     0.4230715
C           0.7117674    -2.8598736    -0.3532653
H          -0.0358699    -2.8538774    -1.1422064
C           1.5725344    -1.7698715    -0.2267810
H           1.4808011    -0.9628780    -0.9393576
C           2.5767486    -1.7315521     0.7597987
C           2.6285828    -2.8281850     1.6468253
H           3.3276727    -2.8262537     2.4751417
C           1.7681392    -3.9163226     1.5243747
H           1.8459257    -4.7386934     2.2309463
35
120_C19H16_4-6-30-28 (-150,) energy =    -733.6695583
C           5.3766399     1.4886883     1.4743366
H           6.0867764     2.2879317     1.6684099
C           5.6026788     0.2008063     1.9575267
H           6.4988792    -0.0260057     2.5288277
C           4.6746829    -0.8022250     1.6993193
H           4.8829752    -1.8089226     2.0479293
C           3.5042814    -0.5746687     0.9475990
C           3.2668714     0.7447547     0.4801095
C           4.2172493     1.7439131     0.7480622
H           4.0140250     2.7529066     0.3988633
C          -0.3668183     2.1147837    -1.3829286
H          -1.2813134     2.4739523    -1.8476733
C          -0.3632099     1.7158509    -0.0468546
H          -1.2734963     1.7618909     0.5448939
C           0.8193038     1.2550989     0.5290823
H           0.8290938     0.9408653     1.5691298
C           2.0095024     1.1850238    -0.2089174
C           2.0107919     1.5909130    -1.5620252
C           3.2614863     1.5235973    -2.4118021
H           3.9813118     2.3075986    -2.1467246
H           3.0166425     1.6464709    -3.4716107
H           3.7836217     0.5679107    -2.2907692
C           0.8116198     2.0470771    -2.1255216
H           0.8054026     2.3514909    -3.1698987
C           0.7445319    -3.8770099     0.5126361
H           0.0506502    -4.7073351     0.4124994
C           0.8562440    -2.9238694    -0.5000864
H           0.2517902    -3.0098806    -1.3992848
C           1.7401372    -1.8536357    -0.3710747
H           1.8167194    -1.1373143    -1.1797330
C           2.5558892    -1.7148115     0.7661786
C           2.4150064    -2.6774142     1.7845984
H           2.9844516    -2.5730047     2.7029744
C           1.5286086    -3.7454801     1.6591280
H           1.4429948    -4.4683529     2.4664035
35
120_C19H16_4-6-30-28 (-135,) energy =    -733.6714284
C           5.4204449     1.4510119     1.4131606
H           6.1529753     2.2370268     1.5759708
C           5.6420284     0.1623401     1.8975011
H           6.5560655    -0.0756574     2.4350193
C           4.6855631    -0.8256431     1.6823221
H           4.8720713    -1.8353179     2.0371198
C           3.4930755    -0.5681721     0.9811879
C           3.2656568     0.7444469     0.4975532
C           4.2420152     1.7278143     0.7246368
H           4.0504230     2.7382333     0.3732772
C          -0.4206932     2.0367443    -1.3166343
H          -1.3494057     2.3744046    -1.7691891
C          -0.3964045     1.6068842     0.0096049
H          -1.3046351     1.6066530     0.6062675
C           0.8041607     1.1741760     0.5687407
H           0.8293535     0.8361170     1.6009447
C           1.9939334     1.1650934    -0.1741767
C           1.9728719     1.5986460    -1.5187939
C           3.2163309     1.5940405    -2.3824687
H           3.8897341     2.4254288    -2.1402273
H           2.9514820     1.6860252    -3.4406874
H           3.7980396     0.6746501    -2.2546474
C           0.7551444     2.0251343    -2.0657030
H           0.7323603     2.3501590    -3.1036510
C           0.7549319    -3.8686642     0.5142558
H           0.0718560    -4.7062801     0.4009766
C           1.0316875    -3.0335438    -0.5698747
H           0.5683644    -3.2221068    -1.5348099
C           1.9040138    -1.9560234    -0.4255100
H           2.1147873    -1.3218175    -1.2799068
C           2.5277008    -1.6919158     0.8052530
C           2.2371243    -2.5404360     1.8876686
H           2.6885420    -2.3402744     2.8556664
C           1.3610770    -3.6161825     1.7454327
H           1.1481507    -4.2529998     2.6002282
35
120_C19H16_4-6-30-28 (-120,) energy =    -733.6713204
C           5.4628323     1.4186539     1.3664186
H           6.2133399     2.1910568     1.5119668
C           5.6827490     0.1219729     1.8305719
H           6.6121925    -0.1339390     2.3322864
C           4.7039656    -0.8504609     1.6404998
H           4.8786687    -1.8661476     1.9850519
C           3.4915158    -0.5595396     0.9925068
C           3.2710758     0.7545244     0.5157006
C           4.2677454     1.7225080     0.7182464
H           4.0841986     2.7379283     0.3771860
C          -0.4492694     2.0100547    -1.2538863
H          -1.3872619     2.3357321    -1.6959805
C          -0.4060920     1.5742434     0.0698071
H          -1.3084830     1.5572280     0.6750310
C           0.8059963     1.1566556     0.6151905
H           0.8456438     0.8143751     1.6454648
C           1.9893393     1.1697985    -0.1381023
C           1.9482598     1.6079222    -1.4808696
C           3.1819489     1.6257153    -2.3582327
H           3.8424424     2.4699021    -2.1247872
H           2.9032024     1.7120336    -3.4133631
H           3.7824055     0.7176345    -2.2368922
C           0.7192617     2.0187542    -2.0141748
H           0.6815340     2.3469592    -3.0507002
C           0.7599575    -3.8507060     0.4726968
H           0.0828983    -4.6908860     0.3433618
C           1.2185515    -3.1408354    -0.6390613
H           0.9045751    -3.4305544    -1.6385029
C           2.0857680    -2.0617730    -0.4751312
H           2.4423315    -1.5196107    -1.3458279
C           2.5092118    -1.6680124     0.8038096
C           2.0493985    -2.3968645     1.9120903
H           2.3700243    -2.1052500     2.9090491
C           1.1786858    -3.4750552     1.7496641
H           0.8275047    -4.0202858     2.6220115
35
120_C19H16_4-6-30-28 (-105,) energy =    -733.6701357
C           5.4915711     1.4215064     1.3298104
H           6.2435231     2.1930659     1.4727850
C           5.7346363     0.1123906     1.7454737
H           6.6822593    -0.1525385     2.2068990
C           4.7543420    -0.8604618     1.5604845
H           4.9405049    -1.8846397     1.8728160
C           3.5191047    -0.5519289     0.9690383
C           3.2758637     0.7711279     0.5352599
C           4.2739477     1.7389579     0.7316565
H           4.0768273     2.7616583     0.4210027
C          -0.4898634     2.0048919    -1.1517356
H          -1.4390031     2.3237664    -1.5746232
C          -0.4126653     1.5893003     0.1767122
H          -1.2992170     1.5816488     0.8051153
C           0.8135287     1.1802277     0.6971371
H           0.8796298     0.8557762     1.7317483
C           1.9766827     1.1817782    -0.0864641
C           1.9009586     1.5992594    -1.4340260
C           3.1132070     1.6071549    -2.3402746
H           3.7821397     2.4498100    -2.1257584
H           2.8105095     1.6888834    -3.3891416
H           3.7122708     0.6970991    -2.2279405
C           0.6588808     2.0025129    -1.9417151
H           0.5945280     2.3156674    -2.9815762
C           0.7787883    -3.8327323     0.4232999
H           0.0996873    -4.6704380     0.2885271
C           1.4324215    -3.2747087    -0.6770921
H           1.2680099    -3.6802662    -1.6720588
C           2.3042476    -2.1997764    -0.5046682
H           2.8154658    -1.7743664    -1.3639541
C           2.5307899    -1.6573490     0.7686025
C           1.8805138    -2.2364078     1.8683015
H           2.0597914    -1.8346673     2.8624479
C           1.0064526    -3.3110519     1.6974625
H           0.5055232    -3.7413645     2.5608958
35
120_C19H16_4-6-30-28 (-90,) energy =    -733.6691424
C           5.4958017     1.4697456     1.3504413
H           6.2267012     2.2550372     1.5245823
C           5.7928754     0.1449995     1.6703482
H           6.7596813    -0.1159352     2.0926518
C           4.8404413    -0.8474582     1.4455191
H           5.0661168    -1.8818414     1.6912112
C           3.5821918    -0.5431073     0.9036928
C           3.2814610     0.7970393     0.5755969
C           4.2512474     1.7850065     0.8082804
H           4.0125376     2.8174539     0.5655746
C          -0.5431428     2.0238449    -0.9785015
H          -1.5060316     2.3414973    -1.3700821
C          -0.3923440     1.7382320     0.3772062
H          -1.2344060     1.8314314     1.0578267
C           0.8514722     1.3308635     0.8583220
H           0.9769729     1.1118157     1.9152222
C           1.9556609     1.2027652     0.0052962
C           1.8065996     1.4930083    -1.3685552
C           2.9640961     1.3646653    -2.3334886
H           3.7763221     2.0610575    -2.0946133
H           2.6399473     1.5669863    -3.3590928
H           3.3988627     0.3584683    -2.3092788
C           0.5501811     1.8989080    -1.8354232
H           0.4297582     2.1190621    -2.8938679
C           0.8459659    -3.8138301     0.2635584
H           0.1629731    -4.6441703     0.1049366
C           1.7118204    -3.4124325    -0.7547396
H           1.7079630    -3.9311144    -1.7099710
C           2.5889439    -2.3464875    -0.5495262
H           3.2679802    -2.0436017    -1.3423587
C           2.6104126    -1.6600720     0.6726555
C           1.7421268    -2.0783303     1.6910600
H           1.7580629    -1.5633640     2.6480249
C           0.8650037    -3.1445546     1.4883021
H           0.1975244    -3.4531991     2.2887794
35
120_C19H16_4-6-30-28 (-75,) energy =    -733.6701226
C           5.4669562     1.5328924     1.5097582
H           6.1576995     2.3295448     1.7732212
C           5.8205950     0.1982121     1.7035543
H           6.7882495    -0.0598667     2.1256453
C           4.9182069    -0.8083624     1.3636696
H           5.1815852    -1.8502366     1.5265096
C           3.6615133    -0.5111060     0.8139201
C           3.2968572     0.8416209     0.6293312
C           4.2147117     1.8436328     0.9813758
H           3.9316849     2.8826730     0.8342934
C          -0.5653741     2.1308937    -0.7760298
H          -1.5377148     2.4655753    -1.1281171
C          -0.2640476     2.1459780     0.5847130
H          -0.9965619     2.4925649     1.3088756
C           0.9911792     1.7151604     1.0128070
H           1.2365680     1.7291999     2.0718794
C           1.9549026     1.2566800     0.1031235
C           1.6577951     1.2546344    -1.2768463
C           2.6693202     0.8042797    -2.3053535
H           3.6600331     1.2297058    -2.1124263
H           2.3600585     1.1020914    -3.3123405
H           2.7818265    -0.2865578    -2.3019385
C           0.3932047     1.6936184    -1.6895208
H           0.1614902     1.6977014    -2.7523676
C           0.9798699    -3.7786869    -0.0349374
H           0.3055033    -4.6038219    -0.2481550
C           2.0777167    -3.5379593    -0.8617197
H           2.2627695    -4.1743699    -1.7232790
C           2.9419162    -2.4766832    -0.5861237
H           3.8011374    -2.2968384    -1.2273258
C           2.7263183    -1.6424930     0.5211333
C           1.6160508    -1.8920481     1.3409986
H           1.4336493    -1.2511206     2.1986737
C           0.7526775    -2.9529678     1.0679213
H          -0.0997004    -3.1339545     1.7175995
35
120_C19H16_4-6-30-28 (-60,) energy =    -733.6718494
C           5.4519404     1.5266694     1.5937453
H           6.1376896     2.3151201     1.8923827
C           5.8227020     0.1871753     1.7024382
H           6.7989645    -0.0850148     2.0947599
C           4.9250728    -0.8067501     1.3183372
H           5.2007152    -1.8525936     1.4251784
C           3.6533380    -0.4961593     0.8087526
C           3.2758642     0.8631540     0.7007651
C           4.1895345     1.8516932     1.1000132
H           3.8969691     2.8943786     1.0084884
C          -0.5692126     2.2588207    -0.6483434
H          -1.5367377     2.6208282    -0.9863272
C          -0.2137741     2.3445238     0.6967279
H          -0.8989972     2.7739228     1.4228118
C           1.0342951     1.8764202     1.1057940
H           1.3211523     1.9417434     2.1525682
C           1.9372516     1.3087991     0.1941488
C           1.5872872     1.2388414    -1.1724550
C           2.5374085     0.6874736    -2.2101029
H           3.5528350     1.0750016    -2.0730521
H           2.2053091     0.9512260    -3.2193094
H           2.6008165    -0.4057985    -2.1557140
C           0.3305286     1.7167822    -1.5655489
H           0.0589295     1.6694799    -2.6178444
C           1.0547344    -3.7962634    -0.1587348
H           0.4048604    -4.6333442    -0.3995908
C           2.2851796    -3.6540760    -0.8015618
H           2.5977466    -4.3785586    -1.5491948
C           3.1170811    -2.5777673    -0.4899342
H           4.0739547    -2.4680215    -0.9942165
C           2.7374224    -1.6262888     0.4712651
C           1.4940787    -1.7779949     1.1042466
H           1.1823343    -1.0514023     1.8478880
C           0.6634133    -2.8547244     0.7951921
H          -0.2922181    -2.9582548     1.3025214
35
120_C19H16_4-6-30-28 (-45,) energy =    -733.6725177
C           5.4495803     1.5212915     1.5708170
H           6.1364400     2.3079195     1.8714431
C           5.8359704     0.1830526     1.6251178
H           6.8272281    -0.0915976     1.9758336
C           4.9364463    -0.8076446     1.2400927
H           5.2253449    -1.8521605     1.3166395
C           3.6397927    -0.5005575     0.7907518
C           3.2538332     0.8611108     0.7198427
C           4.1705802     1.8456617     1.1228524
H           3.8682390     2.8877191     1.0617717
C          -0.5816322     2.3269963    -0.5832804
H          -1.5458041     2.7073086    -0.9104972
C          -0.1963885     2.4343716     0.7519789
H          -0.8542564     2.8989998     1.4816617
C           1.0468810     1.9416692     1.1466170
H           1.3549514     2.0220487     2.1862443
C           1.9156174     1.3271541     0.2313680
C           1.5361397     1.2363489    -1.1266329
C           2.4488914     0.6376048    -2.1715908
H           3.4761253     1.0032079    -2.0657437
H           2.1004235     0.8872492    -3.1788150
H           2.4884913    -0.4553510    -2.0939292
C           0.2847013     1.7396175    -1.5048752
H          -0.0092917     1.6764048    -2.5502651
C           1.1136811    -3.8511263    -0.2049304
H           0.4855489    -4.7038229    -0.4484956
C           2.4268263    -3.7881883    -0.6733499
H           2.8274243    -4.5901916    -1.2880333
C           3.2306067    -2.6928780    -0.3583592
H           4.2474341    -2.6451076    -0.7390008
C           2.7403050    -1.6327412     0.4253313
C           1.4172716    -1.7130347     0.8913493
H           1.0191790    -0.9182790     1.5125809
C           0.6146269    -2.8097881     0.5795132
H          -0.4038087    -2.8517913     0.9568048
35
120_C19H16_4-6-30-28 (-30,) energy =    -733.6709848
C           5.4472605     1.5226033     1.5313191
H           6.1326491     2.3120201     1.8276911
C           5.8522703     0.1893352     1.5348285
H           6.8598423    -0.0815528     1.8388614
C           4.9532102    -0.8037451     1.1576166
H           5.2670848    -1.8413510     1.2123472
C           3.6288853    -0.5147325     0.7768678
C           3.2341872     0.8485384     0.7336685
C           4.1501905     1.8358728     1.1322886
H           3.8328039     2.8746388     1.0979669
C          -0.5896998     2.3729642    -0.5352661
H          -1.5501730     2.7689097    -0.8546678
C          -0.2004925     2.4561416     0.8006388
H          -0.8516324     2.9177304     1.5382033
C           1.0379186     1.9436218     1.1859386
H           1.3498175     2.0032539     2.2257978
C           1.8967211     1.3322437     0.2594491
C           1.5143915     1.2666826    -1.0995045
C           2.4171699     0.6704105    -2.1545897
H           3.4485178     1.0237571    -2.0480440
H           2.0678640     0.9351955    -3.1576260
H           2.4457679    -0.4238103    -2.0893996
C           0.2682368     1.7898412    -1.4675854
H          -0.0285039     1.7456662    -2.5131774
C           1.1374135    -3.9076044    -0.2029355
H           0.5190143    -4.7711241    -0.4328285
C           2.4989855    -3.9126065    -0.5082281
H           2.9498824    -4.7808146    -0.9818968
C           3.2898422    -2.8044006    -0.2098194
H           4.3414885    -2.8191008    -0.4800958
C           2.7422967    -1.6496885     0.3820823
C           1.3717351    -1.6725494     0.7009720
H           0.9221708    -0.8236898     1.2014493
C           0.5808394    -2.7822277     0.4057618
H          -0.4744798    -2.7686793     0.6655747
35
120_C19H16_4-6-30-28 (-15,) energy =    -733.6670908
C           5.4229664     1.5262533     1.4514182
H           6.0985376     2.3274352     1.7383048
C           5.8590346     0.2044180     1.4061663
H           6.8851365    -0.0496420     1.6583045
C           4.9703660    -0.8024022     1.0442573
H           5.3256370    -1.8259782     1.0740835
C           3.6176141    -0.5529280     0.7343391
C           3.1988161     0.8073010     0.7182947
C           4.1050123     1.8090755     1.1053366
H           3.7595214     2.8393188     1.0990078
C          -0.6244345     2.3812567    -0.4939595
H          -1.5826253     2.7922459    -0.8008956
C          -0.2491368     2.3914558     0.8482932
H          -0.9087167     2.8109190     1.6033073
C           0.9870427     1.8611859     1.2180341
H           1.2874945     1.8644841     2.2628503
C           1.8556403     1.3025569     0.2683955
C           1.4872964     1.3108630    -1.0961228
C           2.4023143     0.7665467    -2.1685257
H           3.4212739     1.1550388    -2.0628929
H           2.0361767     1.0359278    -3.1642190
H           2.4709213    -0.3268119    -2.1221983
C           0.2442571     1.8511404    -1.4482930
H          -0.0423643     1.8624486    -2.4975572
C           1.1534108    -3.9997720    -0.1961600
H           0.5420180    -4.8732738    -0.4059565
C           2.5415495    -4.0599790    -0.3202740
H           3.0240956    -4.9832667    -0.6303862
C           3.3230104    -2.9398897    -0.0470539
H           4.3951172    -3.0198467    -0.1896160
C           2.7510161    -1.7061132     0.3282625
C           1.3501437    -1.6824562     0.4830088
H           0.8614686    -0.7876748     0.8427471
C           0.5659555    -2.8032737     0.2120275
H          -0.5116291    -2.7392324     0.3392933
35
120_C19H16_4-6-30-28 (0,) energy =    -733.6628924
C           5.4573434     1.5241452     1.2820035
H           6.1361439     2.3379828     1.5213434
C           5.8895771     0.2013122     1.2838702
H           6.9206775    -0.0459501     1.5221126
C           4.9941020    -0.8174632     0.9820507
H           5.3783107    -1.8281194     1.0163277
C           3.6341535    -0.5944487     0.6709747
C           3.2145002     0.7678606     0.6350535
C           4.1313639     1.7845715     0.9561243
H           3.7762520     2.8112445     0.9315238
C          -0.6337035     2.4346923    -0.3524981
H          -1.5953341     2.8752727    -0.6022965
C          -0.2667212     2.2505611     0.9793448
H          -0.9364027     2.5464324     1.7824442
C           0.9741031     1.6863299     1.2780038
H           1.2689064     1.5406058     2.3139606
C           1.8537643     1.2864056     0.2626196
C           1.4918866     1.4864053    -1.0887628
C           2.4150545     1.0819702    -2.2144951
H           3.4079392     1.5323686    -2.1036047
H           2.0077545     1.3881055    -3.1830970
H           2.5606317    -0.0049631    -2.2398741
C           0.2449609     2.0575515    -1.3692814
H          -0.0388122     2.2126242    -2.4078649
C           1.1463691    -4.0962150    -0.0961405
H           0.5325608    -4.9739601    -0.2791420
C           2.5091638    -4.2226329     0.1713383
H           2.9727948    -5.2053701     0.2009984
C           3.2925986    -3.0964930     0.4069073
H           4.3439028    -3.2654450     0.6015316
C           2.7624071    -1.7867733     0.3745117
C           1.3786377    -1.6929947     0.1210837
H           0.8891405    -0.7324176     0.1174671
C           0.5908771    -2.8198662    -0.1155228
H          -0.4704777    -2.6874866    -0.3092977
35
120_C19H16_4-6-30-28 (15,) energy =    -733.6662579
C           5.5846720     1.4331145     0.8960840
H           6.3077069     2.2357195     1.0130096
C           5.9446630     0.1056918     1.1184294
H           6.9601148    -0.1505462     1.4085696
C           4.9981647    -0.9009708     0.9644464
H           5.3218294    -1.9265802     1.0987137
C           3.6698466    -0.6463180     0.5627563
C           3.2989491     0.7156332     0.3858510
C           4.2712433     1.7183501     0.5382256
H           3.9641727     2.7523094     0.4040626
C          -0.6961768     2.2247693    -0.1758115
H          -1.6996450     2.6198190    -0.3109124
C          -0.3135293     1.6709876     1.0453081
H          -1.0133376     1.6307979     1.8757016
C           0.9773246     1.1672487     1.1968523
H           1.2825529     0.7336826     2.1453216
C           1.9010732     1.2050114     0.1428467
C           1.5195931     1.7703750    -1.0942644
C           2.4727381     1.8229214    -2.2683482
H           3.2827487     2.5445181    -2.1077744
H           1.9463966     2.1138277    -3.1829087
H           2.9506317     0.8524049    -2.4443847
C           0.2168254     2.2683575    -1.2293158
H          -0.0849095     2.6961140    -2.1829061
C           1.0690519    -4.0898543     0.1155037
H           0.4340289    -4.9622036    -0.0133798
C           2.2134850    -4.1568931     0.9099976
H           2.4794787    -5.0847507     1.4098480
C           3.0270724    -3.0376583     1.0703058
H           3.8878728    -3.1235933     1.7242549
C           2.7156705    -1.7991182     0.4723060
C           1.5727604    -1.7665308    -0.3510402
H           1.3167715    -0.8634057    -0.8874004
C           0.7591978    -2.8865917    -0.5166739
H          -0.1160051    -2.8156881    -1.1573537
35
120_C19H16_4-6-30-28 (30,) energy =    -733.6699692
C           5.6238418     1.3988388     0.8238106
H           6.3600819     2.1906979     0.9317970
C           5.9817334     0.0645642     1.0102050
H           7.0052787    -0.2046322     1.2570552
C           5.0197343    -0.9308193     0.8729606
H           5.3205315    -1.9678674     0.9831864
C           3.6828939    -0.6445663     0.5330414
C           3.3181674     0.7176624     0.3699779
C           4.3034167     1.7084287     0.5102021
H           4.0073677     2.7484862     0.4009831
C          -0.7164833     2.1370940    -0.1385702
H          -1.7313226     2.5066721    -0.2601665
C          -0.3263524     1.5237388     1.0511688
H          -1.0312729     1.4104900     1.8704116
C           0.9788244     1.0537477     1.1854480
H           1.2894438     0.5736413     2.1093336
C           1.9115445     1.1866249     0.1469213
C           1.5204216     1.8092338    -1.0596891
C           2.4764942     1.9617460    -2.2232574
H           3.2556603     2.7066226    -2.0224457
H           1.9417365     2.2786062    -3.1242296
H           2.9950434     1.0225524    -2.4477625
C           0.2029674     2.2713234    -1.1785315
H          -0.1053891     2.7427077    -2.1091794
C           1.0391565    -4.0444557     0.1626601
H           0.3902511    -4.9100548     0.0596947
C           2.0622073    -4.0374392     1.1111594
H           2.2146151    -4.8983294     1.7570462
C           2.8942038    -2.9264649     1.2388934
H           3.6666390    -2.9325109     2.0020946
C           2.7177849    -1.7809237     0.4401821
C           1.6917266    -1.8152919    -0.5216261
H           1.5481172    -0.9694975    -1.1831801
C           0.8617415    -2.9272295    -0.6544476
H           0.0787264    -2.9214928    -1.4082762
35
120_C19H16_4-6-30-28 (45,) energy =    -733.6715292
C           5.6555265     1.3381255     0.7783801
H           6.4030842     2.1208099     0.8759489
C           6.0059971    -0.0017939     0.9413323
H           7.0339361    -0.2812242     1.1564738
C           5.0297751    -0.9863827     0.8185528
H           5.3081080    -2.0315853     0.9199617
C           3.6893509    -0.6720848     0.5294216
C           3.3334170     0.6900871     0.3709880
C           4.3320053     1.6690529     0.4986243
H           4.0488834     2.7137664     0.4015545
C          -0.7203664     2.0619081    -0.1150349
H          -1.7406689     2.4181935    -0.2306775
C          -0.3314958     1.3978527     1.0478346
H          -1.0428603     1.2311461     1.8522342
C           0.9801692     0.9455505     1.1735540
H           1.2888201     0.4258574     2.0762955
C           1.9233294     1.1479680     0.1549021
C           1.5320816     1.8184691    -1.0256784
C           2.4922706     2.0516222    -2.1728676
H           3.1763983     2.8860803    -1.9744697
H           1.9455144     2.2901964    -3.0908517
H           3.1183231     1.1740226    -2.3661680
C           0.2070235     2.2612358    -1.1366466
H          -0.1010279     2.7686251    -2.0483469
C           0.9715079    -4.0004951     0.1687132
H           0.2976766    -4.8479802     0.0751869
C           1.8548527    -3.9188269     1.2458268
H           1.8704215    -4.7012512     2.0002174
C           2.7189325    -2.8302671     1.3622936
H           3.3935091    -2.7673086     2.2120384
C           2.7151148    -1.7956627     0.4110814
C           1.8217860    -1.8942054    -0.6684522
H           1.8087851    -1.1169109    -1.4253474
C           0.9607746    -2.9837772    -0.7881694
H           0.2821443    -3.0398697    -1.6353093
35
120_C19H16_4-6-30-28 (60,) energy =    -733.6711825
C           5.6824981     1.3326000     0.7380911
H           6.4320470     2.1144330     0.8275568
C           6.0415073    -0.0092962     0.8629982
H           7.0767045    -0.2891731     1.0393273
C           5.0630577    -0.9944442     0.7524642
H           5.3395235    -2.0423824     0.8330068
C           3.7153400    -0.6715908     0.5215530
C           3.3514912     0.6892424     0.3872765
C           4.3509775     1.6685574     0.5036797
H           4.0657318     2.7145523     0.4289014
C          -0.7292515     1.9934117    -0.0563362
H          -1.7570755     2.3305007    -0.1626883
C          -0.3204201     1.3263088     1.0977651
H          -1.0234823     1.1378158     1.9046584
C           1.0005217     0.8985443     1.2111207
H           1.3242361     0.3766923     2.1072126
C           1.9336840     1.1291280     0.1892603
C           1.5216876     1.8021198    -0.9827981
C           2.4689824     2.0654346    -2.1340265
H           3.1379277     2.9113506    -1.9322695
H           1.9110531     2.3021365    -3.0457542
H           3.1109879     1.2025190    -2.3405666
C           0.1877006     2.2199255    -1.0815870
H          -0.1359518     2.7290736    -1.9868932
C           0.9287973    -3.9367484     0.1447372
H           0.2314921    -4.7649582     0.0503755
C           1.6541760    -3.7598197     1.3235832
H           1.5216027    -4.4477118     2.1547450
C           2.5488432    -2.6954168     1.4419708
H           3.1074895    -2.5562940     2.3641080
C           2.7354605    -1.7903635     0.3854826
C           1.9952672    -1.9765731    -0.7919675
H           2.1265649    -1.2856904    -1.6195363
C           1.1034197    -3.0413606    -0.9126179
H           0.5442170    -3.1724116    -1.8353907
35
120_C19H16_4-6-30-28 (75,) energy =    -733.6699490
C           5.6858124     1.3543402     0.7577101
H           6.4324678     2.1377403     0.8575915
C           6.0551863     0.0117898     0.8388045
H           7.0946728    -0.2654909     0.9926767
C           5.0810960    -0.9771217     0.7162158
H           5.3631709    -2.0253537     0.7701896
C           3.7294106    -0.6537685     0.5188008
C           3.3553342     0.7058589     0.4233234
C           4.3492500     1.6893626     0.5511987
H           4.0571260     2.7351322     0.5017840
C          -0.7368146     1.9716910    -0.0251695
H          -1.7675911     2.2985040    -0.1351088
C          -0.3137511     1.3529877     1.1501620
H          -1.0083377     1.1924263     1.9703522
C           1.0114113     0.9380283     1.2681244
H           1.3464345     0.4561762     2.1822536
C           1.9328547     1.1332819     0.2293598
C           1.5065616     1.7578523    -0.9638862
C           2.4463850     1.9827789    -2.1286330
H           3.1563655     2.7959716    -1.9339170
H           1.8864793     2.2454086    -3.0318658