19
442_C9H7ClN2_4-6-15-16 (-165,) energy =    -916.8343464
C           5.8649696     0.9505976    -0.2903217
H           6.7057106     1.6254770    -0.4183426
C           5.7999878     0.0857402     0.8009214
H           6.5924888     0.0673554     1.5429873
C           4.7184440    -0.7744320     0.9368604
H           4.7088033    -1.4758552     1.7627033
C           3.6683198    -0.8094338     0.0009215
C           3.7292538     0.0930159    -1.0825054
Cl          2.4751162     0.2873623    -2.2895536
C           4.8316456     0.9446547    -1.2196892
H           4.8510251     1.6191961    -2.0687712
C           1.0963169    -2.9504810     1.3068584
H           0.5493570    -3.5013600     2.0581115
C           2.2462757    -2.2215874     1.4876083
H           2.8121480    -2.0168736     2.3818180
N           2.5868687    -1.6916095     0.2637967
N           1.6779467    -2.0326480    -0.6900761
C           0.7929035    -2.7968524    -0.0668225
H          -0.0361532    -3.2098396    -0.6266769
19
442_C9H7ClN2_4-6-15-16 (-150,) energy =    -916.8374063
C           5.8746868     0.9310923    -0.3015571
H           6.7200187     1.5989471    -0.4371022
C           5.8497980     0.0174978     0.7514320
H           6.6779581    -0.0437766     1.4510098
C           4.7638739    -0.8382180     0.8963771
H           4.7670679    -1.5841303     1.6841857
C           3.6769180    -0.8053506     0.0079660
C           3.6933049     0.1487568    -1.0281974
Cl          2.3525996     0.4059607    -2.1226701
C           4.7988401     0.9903466    -1.1824868
H           4.7894893     1.7092801    -1.9946257
C           1.0534165    -2.8801651     1.3029428
H           0.4486867    -3.3636322     2.0562849
C           2.1472536    -2.0726970     1.5071339
H           2.6156397    -1.7216178     2.4137890
N           2.5896161    -1.6770652     0.2684685
N           1.8128803    -2.1831534    -0.7269269
C           0.8965897    -2.9124321    -0.1035518
H           0.1521234    -3.4379358    -0.6874989
19
442_C9H7ClN2_4-6-15-16 (-135,) energy =    -916.8393742
C           5.7949538     1.0223081    -0.3223660
H           6.5923662     1.7338477    -0.5150819
C           4.6028851     1.4367135     0.2712672
H           4.4583267     2.4752821     0.5531325
C           3.5991531     0.5067735     0.5247275
H           2.6840211     0.8082211     1.0246596
C           3.7568019    -0.8428299     0.1810855
C           4.9487223    -1.2449367    -0.4472001
Cl          5.1956087    -2.8774770    -1.0230753
C           5.9638232    -0.3140196    -0.6782990
H           6.8774690    -0.6478857    -1.1582512
C           0.6566574    -2.5948045     0.5974448
H          -0.4097253    -2.7582587     0.5419889
C           1.3527267    -1.4847957     0.1762120
H           1.0319819    -0.5708550    -0.3015707
N           2.6772717    -1.7271126     0.4309331
N           2.8716860    -2.9480079     0.9978406
C           1.6532696    -3.4665342     1.0981255
H           1.5314972    -4.4513630     1.5302973
19
442_C9H7ClN2_4-6-15-16 (-120,) energy =    -916.8399491
C           5.8030266     1.0218549    -0.3027800
H           6.6078559     1.7285312    -0.4828410
C           4.6435566     1.4257385     0.3593568
H           4.5352680     2.4488980     0.7062571
C           3.6268265     0.5033566     0.5942839
H           2.7308467     0.7898162     1.1362724
C           3.7447514    -0.8212214     0.1588069
C           4.9073374    -1.2137225    -0.5237519
Cl          5.0859801    -2.8326418    -1.1585661
C           5.9348363    -0.2947868    -0.7417765
H           6.8265091    -0.6177190    -1.2682406
C           0.6738519    -2.6346129     0.5397195
H          -0.3800003    -2.8446005     0.4288389
C           1.3686254    -1.5603253     0.0292026
H           1.0612890    -0.7212328    -0.5780328
N           2.6740942    -1.7204889     0.4051211
N           2.8601566    -2.8445328     1.1481443
C           1.6524948    -3.3941963     1.2236078
H           1.5252961    -4.3187957     1.7718645
19
442_C9H7ClN2_4-6-15-16 (-105,) energy =    -916.8396918
C           5.8043348     1.0218652    -0.2953737
H           6.6155518     1.7209181    -0.4771454
C           4.6926881     1.4118662     0.4522400
H           4.6302211     2.4153589     0.8620600
C           3.6639182     0.5013319     0.6846148
H           2.7991784     0.7745691     1.2812968
C           3.7279218    -0.7945059     0.1646261
C           4.8465173    -1.1748501    -0.5914204
Cl          4.9519835    -2.7755051    -1.2866267
C           5.8839006    -0.2693024    -0.8161647
H           6.7417434    -0.5808198    -1.4022806
C           0.6976762    -2.6974307     0.4603540
H          -0.3287651    -2.9747613     0.2691063
C           1.4032878    -1.6618581    -0.1139322
H           1.1327483    -0.9225003    -0.8539805
N           2.6604823    -1.7000541     0.4191042
N           2.8073764    -2.7055721     1.3230858
C           1.6212786    -3.3071289     1.3408949
H           1.4696565    -4.1586411     1.9918249
19
442_C9H7ClN2_4-6-15-16 (-90,) energy =    -916.8395494
C           5.8078346     1.0197942    -0.2958283
H           6.6223709     1.7118411    -0.4894197
C           4.7582283     1.3868718     0.5474651
H           4.7477733     2.3655252     1.0174966
C           3.7204619     0.4889063     0.7882074
H           2.8972404     0.7462927     1.4470870
C           3.7206558    -0.7750450     0.1928601
C           4.7803089    -1.1339844    -0.6523206
Cl          4.8115043    -2.7064560    -1.4185584
C           5.8221457    -0.2385056    -0.8965463
H           6.6341434    -0.5333443    -1.5524228
C           0.7491467    -2.7865066     0.3764740
H          -0.2279362    -3.1515694     0.0951009
C           1.4803155    -1.7954520    -0.2431728
H           1.2800934    -1.1807505    -1.1089248
N           2.6457327    -1.6715394     0.4567977
N           2.7145365    -2.5371559     1.5040875
C           1.5664307    -3.2075357     1.4505971
H           1.3651347    -3.9715744     2.1905590
19
442_C9H7ClN2_4-6-15-16 (-75,) energy =    -916.8401907
C           5.8068639     1.0360386    -0.2829985
H           6.6201304     1.7284295    -0.4803836
C           4.8123458     1.3620835     0.6406031
H           4.8423130     2.3105811     1.1681392
C           3.7723616     0.4674053     0.8794940
H           2.9868760     0.6960018     1.5923973
C           3.7212612    -0.7611634     0.2144168
C           4.7276601    -1.0804603    -0.7082544
Cl          4.7116811    -2.6131465    -1.5563348
C           5.7663389    -0.1825453    -0.9587131
H           6.5365600    -0.4483136    -1.6746406
C           0.8026660    -2.8535718     0.3376143
H          -0.1201750    -3.3018015    -0.0008734
C           1.5770349    -1.9305411    -0.3317085
H           1.4678101    -1.4590010    -1.2975103
N           2.6373663    -1.6442394     0.4792312
N           2.5995425    -2.3460756     1.6453180
C           1.4882207    -3.0716476     1.5549212
H           1.2183257    -3.7296020     2.3710309
19
442_C9H7ClN2_4-6-15-16 (-60,) energy =    -916.8414362
C           5.7953796     1.0529969    -0.2712487
H           6.6037380     1.7532863    -0.4602174
C           4.8454918     1.3191783     0.7165579
H           4.9044658     2.2305881     1.3037383
C           3.8098267     0.4173327     0.9409927
H           3.0573708     0.6011621     1.7003346
C           3.7190316    -0.7672555     0.2014386
C           4.6833493    -1.0290547    -0.7831042
Cl          4.6439249    -2.5094341    -1.7237639
C           5.7142086    -0.1184671    -1.0213123
H           6.4506089    -0.3422020    -1.7855886
C           0.8290323    -2.8990210     0.3288324
H          -0.0549578    -3.4077781    -0.0271903
C           1.6568049    -2.0654064    -0.3906714
H           1.6301321    -1.7332286    -1.4177338
N           2.6367828    -1.6483200     0.4647963
N           2.4901044    -2.1780278     1.7118864
C           1.3974388    -2.9303537     1.6236348
H           1.0576671    -3.4744912     2.4955225
19
442_C9H7ClN2_4-6-15-16 (-45,) energy =    -916.8424736
C           5.7924384     1.0664890    -0.2637938
H           6.5938180     1.7772640    -0.4425006
C           4.8816573     1.2699305     0.7745389
H           4.9638299     2.1434583     1.4142465
C           3.8540161     0.3570881     0.9847420
H           3.1333850     0.4936947     1.7830012
C           3.7261678    -0.7808168     0.1770940
C           4.6584898    -0.9856713    -0.8519154
Cl          4.6132394    -2.4176515    -1.8694295
C           5.6795132    -0.0599814    -1.0749517
H           6.3872502    -0.2415492    -1.8765574
C           0.8537807    -2.9365493     0.3335707
H          -0.0003813    -3.4942964    -0.0218065
C           1.7395144    -2.2013936    -0.4218188
H           1.7878947    -2.0052328    -1.4815572
N           2.6559806    -1.6721594     0.4450617
N           2.3986018    -2.0256989     1.7369888
C           1.3151800    -2.7907240     1.6628484
H           0.9052978    -3.2171171     2.5694051
19
442_C9H7ClN2_4-6-15-16 (-30,) energy =    -916.8424516
C           5.7859142     1.0843253    -0.2603737
H           6.5788533     1.8058141    -0.4330364
C           4.9172305     1.2251736     0.8229195
H           5.0244342     2.0603791     1.5085550
C           3.8998649     0.3002587     1.0253147
H           3.2138540     0.3914562     1.8585541
C           3.7280739    -0.7892279     0.1579116
C           4.6303611    -0.9396086    -0.9089210
Cl          4.5864164    -2.3253207    -1.9930227
C           5.6406200     0.0005066    -1.1215224
H           6.3182833    -0.1409723    -1.9565205
C           0.8739177    -2.9713291     0.3420196
H           0.0487844    -3.5738776    -0.0087764
C           1.8188257    -2.3308309    -0.4256172
H           1.9399840    -2.2640213    -1.4941587
N           2.6765433    -1.6997759     0.4381896
N           2.3041024    -1.8848202     1.7387656
C           1.2292256    -2.6598961     1.6753471
H           0.7480974    -2.9733506     2.5929027
19
442_C9H7ClN2_4-6-15-16 (-15,) energy =    -916.8410194
C           5.7895210     1.0942905    -0.2572378
H           6.5796158     1.8200249    -0.4244367
C           4.9695084     1.1738912     0.8688633
H           5.1122269     1.9645389     1.5994721
C           3.9564993     0.2441383     1.0630396
H           3.3103597     0.2941757     1.9296499
C           3.7238166    -0.7909693     0.1404569
C           4.5891092    -0.8870465    -0.9651715
Cl          4.5298543    -2.2075872    -2.1318531
C           5.5965910     0.0598065    -1.1661556
H           6.2365280    -0.0416741    -2.0359667
C           0.9044020    -3.0277842     0.3535426
H           0.1239263    -3.6931570     0.0143266
C           1.9040311    -2.4695931    -0.4070914
H           2.1105663    -2.5447997    -1.4600215
N           2.6797148    -1.7098611     0.4353147
N           2.1844305    -1.7298472     1.7098549
C           1.1328997    -2.5337301     1.6586104
H           0.5745619    -2.7326532     2.5643848
19
442_C9H7ClN2_4-6-15-16 (0,) energy =    -916.8394433
C           5.8339186     1.0754016    -0.2101572
H           6.6553932     1.7714325    -0.3496622
C           5.0524471     1.1035654     0.9451556
H           5.2536960     1.8268695     1.7298163
C           4.0071385     0.2058511     1.1047830
H           3.3958392     0.2199173     1.9965970
C           3.6949683    -0.7565680     0.1241879
C           4.4936112    -0.7713158    -1.0361539
Cl          4.2783520    -1.8894130    -2.3857088
C           5.5464903     0.1362471    -1.1918434
H           6.1349705     0.0882174    -2.1015827
C           0.9936900    -3.1493558     0.4315680
H           0.3364362    -3.9639354     0.1644327
C           2.0351998    -2.6519391    -0.3147282
H           2.4037836    -2.9486662    -1.2783545
N           2.5982909    -1.6231110     0.4029084
N           1.9448440    -1.4478655     1.5930953
C           0.9876912    -2.3616035     1.6043038
H           0.3248849    -2.4216958     2.4580006
19
442_C9H7ClN2_4-6-15-16 (15,) energy =    -916.8410195
C           5.8683518     1.0265250    -0.1877511
H           6.7220626     1.6861540    -0.3100547
C           5.1361104     1.0144232     0.9999006
H           5.4086147     1.6697930     1.8217988
C           4.0531397     0.1573700     1.1446861
H           3.4772560     0.1341206     2.0605594
C           3.6676210    -0.7184827     0.1146360
C           4.3855226    -0.6607842    -1.0943654
Cl          3.9409914    -1.5801671    -2.5315838
C           5.4847872     0.1906731    -1.2306929
H           6.0194966     0.1989605    -2.1743095
C           1.1157380    -3.2335737     0.5142859
H           0.5891344    -4.1628112     0.3526210
C           2.2042602    -2.7674833    -0.1837565
H           2.7635931    -3.2090741    -0.9894360
N           2.5316137    -1.5418992     0.3447454
N           1.7102417    -1.2233594     1.3907218
C           0.8542724    -2.2306191     1.4761815
H           0.0752582    -2.2004910     2.2271618
19
442_C9H7ClN2_4-6-15-16 (30,) energy =    -916.8424517
C           5.8605699     1.0194997    -0.2016677
H           6.7142891     1.6777666    -0.3318793
C           5.1903660     0.9544461     1.0208562
H           5.5153672     1.5635380     1.8590333
C           4.1060788     0.0991571     1.1766225
H           3.5728050     0.0320060     2.1170092
C           3.6602648    -0.7059207     0.1173897
C           4.3213083    -0.6058166    -1.1186771
Cl          3.7824058    -1.4778892    -2.5492226
C           5.4218828     0.2403488    -1.2683527
H           5.9136373     0.2917711    -2.2337560
C           1.1610375    -3.2566446     0.5516326
H           0.6818466    -4.2187433     0.4435047
C           2.3076927    -2.8262806    -0.0747238
H           2.9714059    -3.3235700    -0.7625592
N           2.5375296    -1.5423635     0.3480422
N           1.5959418    -1.1353914     1.2493179
C           0.7646282    -2.1636689     1.3574199
H          -0.0961548    -2.0821551     2.0086267
19
442_C9H7ClN2_4-6-15-16 (45,) energy =    -916.8424736
C           5.8501375     1.0208321    -0.2092414
H           6.7005006     1.6807212    -0.3533920
C           5.2456085     0.9053534     1.0438651
H           5.6211664     1.4735569     1.8895155
C           4.1643696     0.0481861     1.2161975
H           3.6790253    -0.0603101     2.1794504
C           3.6565520    -0.6942498     0.1417727
C           4.2596388    -0.5562813    -1.1181042
Cl          3.6468842    -1.3977758    -2.5338701
C           5.3568055     0.2902942    -1.2874736
H           5.8047173     0.3792196    -2.2712901
C           1.1890311    -3.2711946     0.5810563
H           0.7416435    -4.2519191     0.5104319
C           2.3924172    -2.8661088     0.0487550
H           3.1394982    -3.3962006    -0.5211002
N           2.5517687    -1.5497043     0.3851680
N           1.5044277    -1.0820734     1.1232171
C           0.6850947    -2.1217920     1.2337760
H          -0.2450653    -2.0073985     1.7754158
19
442_C9H7ClN2_4-6-15-16 (60,) energy =    -916.8414362
C           5.8498374     1.0164316    -0.2239219
H           6.6992713     1.6739135    -0.3843505
C           5.3157059     0.8504889     1.0551709
H           5.7463289     1.3754156     1.9024848
C           4.2332782    -0.0025951     1.2472207
H           3.8008653    -0.1514859     2.2308020
C           3.6575614    -0.6829122     0.1682620
C           4.1966486    -0.5027569    -1.1141923
Cl          3.5026382    -1.3024330    -2.5130468
C           5.2925838     0.3400119    -1.3071797
H           5.6918187     0.4667570    -2.3076820
C           1.2194675    -3.2848516     0.6130859
H           0.8046354    -4.2819470     0.5859893
C           2.4698570    -2.8913744     0.1894032
H           3.2915342    -3.4423434    -0.2432511
N           2.5603168    -1.5482272     0.4215375
N           1.4204590    -1.0439022     0.9726863
C           0.6162064    -2.0964442     1.0867693
H          -0.3741737    -1.9631926     1.5028405
19
442_C9H7ClN2_4-6-15-16 (75,) energy =    -916.8401907
C           5.8507369     1.0173669    -0.2544834
H           6.7000125     1.6718347    -0.4281894
C           5.3907742     0.7892042     1.0435174
H           5.8786268     1.2624531     1.8901962
C           4.3045958    -0.0568516     1.2520352
H           3.9266645    -0.2512686     2.2504642
C           3.6602129    -0.6692864     0.1731630
C           4.1276339    -0.4300549    -1.1270255
Cl          3.3447707    -1.1656729    -2.5107431
C           5.2224612     0.4088886    -1.3399337
H           5.5683410     0.5831600    -2.3530584
C           1.2475742    -3.2878217     0.6558171
H           0.8626063    -4.2964675     0.6949422
C           2.5315152    -2.8965674     0.3426977
H           3.4135162    -3.4584131     0.0716566
N           2.5596047    -1.5343278     0.4282951
N           1.3497478    -1.0138990     0.7735995
C           0.5630379    -2.0775498     0.9128748
H          -0.4730692    -1.9362795     1.1927440
19
442_C9H7ClN2_4-6-15-16 (90,) energy =    -916.8395494
C           5.8427193     1.0076718    -0.2746474
H           6.6898557     1.6652233    -0.4474618
C           5.4478395     0.6961272     1.0271125
H           5.9827072     1.1090225     1.8769558
C           4.3585596    -0.1475597     1.2343274
H           4.0255096    -0.3981730     2.2364935
C           3.6585168    -0.6848734     0.1511642
C           4.0632297    -0.3650261    -1.1526458
Cl          3.2130576    -1.0229857    -2.5328871
C           5.1532869     0.4795862    -1.3656058
H           5.4518354     0.7168954    -2.3809854
C           1.2673323    -3.2994091     0.7471977
H           0.9066487    -4.3063597     0.8991380
C           2.5692844    -2.9037397     0.5255316
H           3.4923849    -3.4596926     0.4463140
N           2.5495352    -1.5451697     0.3937805
N           1.2954626    -1.0319228     0.5151261
C           0.5255559    -2.0959164     0.7286346
H          -0.5396854    -1.9593278     0.8643811
19
442_C9H7ClN2_4-6-15-16 (105,) energy =    -916.8396918
C           5.8433826     1.0055289    -0.2713883
H           6.6890477     1.6682345    -0.4309550
C           5.5051795     0.5931836     1.0179495
H           6.0811511     0.9337516     1.8730063
C           4.4122838    -0.2499778     1.2079285
H           4.1165281    -0.5669478     2.2031798
C           3.6597984    -0.6979852     0.1185562
C           4.0119349    -0.2832967    -1.1743198
Cl          3.1169904    -0.8454259    -2.5670255
C           5.0985712     0.5703699    -1.3670929
H           5.3559993     0.8816926    -2.3737093
C           1.2823532    -3.2791965     0.8775174
H           0.9325582    -4.2609871     1.1617733
C           2.5900141    -2.8714240     0.7230668
H           3.5299989    -3.3933169     0.8306176
N           2.5502729    -1.5590048     0.3461092
N           1.2782141    -1.0859872     0.2570290
C           0.5168140    -2.1292923     0.5745299
H          -0.5598004    -2.0167881     0.5786738
19
442_C9H7ClN2_4-6-15-16 (120,) energy =    -916.8399490
C           5.8390057     0.9987407    -0.2726080
H           6.6879425     1.6590923    -0.4235566
C           5.5486691     0.5003932     0.9974085
H           6.1649483     0.7711513     1.8493582
C           4.4480284    -0.3343171     1.1757629
H           4.1861858    -0.7060631     2.1615640
C           3.6380603    -0.6950999     0.0933354
C           3.9492457    -0.2036904    -1.1848453
Cl          3.0229749    -0.6743410    -2.5905307
C           5.0402651     0.6485964    -1.3603572
H           5.2630562     1.0201166    -2.3547959
C           1.2807223    -3.2491480     0.9785584
H           0.9370881    -4.1973594     1.3655976
C           2.5822271    -2.8066640     0.8901053
H           3.5233905    -3.2670249     1.1538241
N           2.5381588    -1.5633428     0.3214653
N           1.2656024    -1.1698862     0.0457448
C           0.5113860    -2.1907999     0.4397680
H          -0.5633900    -2.1291928     0.3269776
19
442_C9H7ClN2_4-6-15-16 (135,) energy =    -916.8393742
C           5.8562890     0.9827457    -0.2826885
H           6.7148942     1.6301020    -0.4344151
C           5.6034880     0.4217643     0.9689363
H           6.2589879     0.6288824     1.8094082
C           4.4890471    -0.3923102     1.1472533
H           4.2574411    -0.8004515     2.1260515
C           3.6182112    -0.6730524     0.0855391
C           3.8996916    -0.1298590    -1.1804671
Cl          2.9457241    -0.5148324    -2.5945198
C           5.0053328     0.7062411    -1.3505788
H           5.1994562     1.1194801    -2.3345076
C           1.2817655    -3.2182267     1.0429997
H           0.9414853    -4.1371340     1.4977334
C           2.5644826    -2.7196997     1.0303743
H           3.4921717    -3.1057657     1.4263360
N           2.5257213    -1.5431260     0.3287858
N           1.2729370    -1.2569845    -0.1166570
C           0.5266900    -2.2663674     0.3165957
H          -0.5324183    -2.2748938     0.0936460
19
442_C9H7ClN2_4-6-15-16 (150,) energy =    -916.8374063
C           5.8653679     0.9575735    -0.2867580
H           6.7352061     1.5882137    -0.4438027
C           5.6443385     0.3418805     0.9445571
H           6.3368718     0.4866527     1.7682383
C           4.5157721    -0.4489501     1.1273713
H           4.3159826    -0.8862231     2.0999524
C           3.5850241    -0.6532475     0.0959662
C           3.8387409    -0.0599242    -1.1561571
Cl          2.8500853    -0.3386412    -2.5726300
C           4.9630368     0.7532355    -1.3264864
H           5.1291458     1.2054876    -2.2982885
C           1.2671491    -3.1963809     1.1081161
H           0.9283968    -4.0869088     1.6172038
C           2.5174797    -2.6280627     1.1701999
H           3.4158712    -2.9346224     1.6836004
N           2.4946744    -1.5206830     0.3579821
N           1.2833712    -1.3620101    -0.2402015
C           0.5454702    -2.3644396     0.2187805
H          -0.4828990    -2.4557895    -0.1060083
19
442_C9H7ClN2_4-6-15-16 (165,) energy =    -916.8343464
C           5.8858301     0.9427818    -0.3036808
H           6.7617136     1.5642203    -0.4628843
C           5.6953640     0.2671918     0.9006037
H           6.4188490     0.3531370     1.7057326
C           4.5618078    -0.5138894     1.0826248
H           4.4037467    -0.9906608     2.0427403
C           3.5805320    -0.6522172     0.0836806
C           3.7998723     0.0106761    -1.1428556
Cl          2.7620817    -0.1231646    -2.5473518
C           4.9374747     0.8088383    -1.3107330
H           5.0705895     1.3113821    -2.2626018
C           1.2458823    -3.1572899     1.1693807
H           0.8865867    -3.9958502     1.7479584
C           2.4572123    -2.5222831     1.2948984
H           3.2932460    -2.7310343     1.9423615
N           2.4865387    -1.5157254     0.3564560
N           1.3462375    -1.5022085    -0.3863676
C           0.5992273    -2.4776273     0.1098822
H          -0.3797587    -2.6610788    -0.3134903
19
442_C9H7ClN2_4-6-15-16 (180,) energy =    -916.8323157
C           5.8795404     0.9576532    -0.3036399
H           6.7378553     1.6064495    -0.4481963
C           5.7491134     0.1823413     0.8467523
H           6.5056294     0.2108236     1.6251996
C           4.6414657    -0.6386304     1.0062594
H           4.5701352    -1.2276282     1.9111011
C           3.6212651    -0.7262834     0.0389280
C           3.7653641     0.0646650    -1.1236006
Cl          2.6333802     0.1238410    -2.4602668
C           4.8876327     0.8892880    -1.2729653
H           4.9625031     1.4812427    -2.1785703
C           1.1698637    -3.0628906     1.2605376
H           0.7241284    -3.7664750     1.9485471
C           2.3532165    -2.3861224     1.4223795
H           3.0564904    -2.4150691     2.2372739
N           2.5308532    -1.6001402     0.3052268
N           1.4964293    -1.7543357    -0.5667303
C           0.6838863    -2.6295895     0.0048666
H          -0.2251114    -2.9187169    -0.5064075
