29
112_C10H16N2O_11-0-22-21 (-165,) energy =    -575.4112449
C           2.8205353    -1.7956212    -0.7855722
H           3.2713879    -2.7092019    -1.1992795
H           2.2181131    -2.1397240     0.0650833
C           6.1120085     0.4868684     0.8176465
H           6.9345633     1.1613405     1.0818844
H           6.0863708    -0.2776174     1.6056243
C           4.7853796     1.2558773     0.8094433
H           4.6350990     1.8013686     1.7475594
H           4.8086563     2.0112650     0.0133721
C           3.5677899     0.3489307     0.5284201
H           3.1096538     0.0305924     1.4781274
C           3.9825645    -0.9237518    -0.2552382
H           4.4642185    -1.5743443     0.4901852
C           5.0775628    -0.5761343    -1.2817959
H           4.7468637     0.2553605    -1.9173383
H           5.2596041    -1.4215098    -1.9559385
C           6.3861396    -0.1736143    -0.5559958
H           7.0192162    -1.0582474    -0.4140473
H           6.9568562     0.5134648    -1.1925813
C           0.1151682    -1.1582704    -3.0936355
H          -0.8447187    -1.4395736    -3.5059160
N           0.6877902    -1.8722132    -2.0647381
C           1.8395472    -1.2748013    -1.8083956
N           2.0301046    -0.2068591    -2.6472605
H           2.7270781     0.5109293    -2.5081564
C           0.9204130    -0.1121323    -3.4640218
H           0.8175571     0.6702357    -4.2008941
O           2.6374172     1.1761195    -0.1842149
H           1.7813178     0.7199292    -0.2074973
29
112_C10H16N2O_11-0-22-21 (-150,) energy =    -575.4117017
C           2.8069008    -1.7839814    -0.7751085
H           3.2285890    -2.7058806    -1.2043808
H           2.1986564    -2.1128307     0.0756526
C           6.1066663     0.4910419     0.8125885
H           6.9192144     1.1748031     1.0838464
H           6.1268026    -0.3110705     1.5623612
C           4.7582209     1.2191777     0.8825356
H           4.6238713     1.7127493     1.8513087
H           4.7309862     2.0128325     0.1249777
C           3.5626196     0.2848844     0.5956679
H           3.1502055    -0.0960349     1.5444823
C           3.9931958    -0.9387420    -0.2580123
H           4.5153678    -1.6165260     0.4337339
C           5.0346159    -0.4971962    -1.3007152
H           4.6501380     0.3753049    -1.8462398
H           5.2188470    -1.2858265    -2.0410923
C           6.3563551    -0.0966168    -0.5985714
H           7.0153685    -0.9701134    -0.5199837
H           6.8875307     0.6353474    -1.2192641
C           0.0552291    -0.9670930    -2.9666769
H          -0.9816929    -1.0885899    -3.2497585
N           0.5656541    -1.5744874    -1.8410763
C           1.8376617    -1.2140693    -1.7775495
N           2.1633608    -0.4158087    -2.8430867
H           3.0533662     0.0336658    -2.9940454
C           1.0264691    -0.2401239    -3.6049901
H           1.0196076     0.3787015    -4.4897353
O           2.5860517     1.1010089    -0.0545712
H           1.7651498     0.5896578    -0.1406890
29
112_C10H16N2O_11-0-22-21 (-135,) energy =    -575.4140244
C           2.8165325    -1.7940855    -0.7779799
H           3.2266805    -2.7213404    -1.2064067
H           2.1889640    -2.1069804     0.0640752
C           6.0932334     0.5243546     0.7993691
H           6.8889022     1.2274136     1.0716112
H           6.1593464    -0.2989529     1.5232454
C           4.7229707     1.2021964     0.9223004
H           4.5961345     1.6639006     1.9077194
H           4.6487680     2.0141868     0.1878178
C           3.5540822     0.2340672     0.6377826
H           3.1775562    -0.1848050     1.5859406
C           4.0059985    -0.9569136    -0.2534985
H           4.5534436    -1.6432970     0.4094208
C           5.0064777    -0.4591256    -1.3089289
H           4.5623977     0.3965364    -1.8339497
H           5.2116604    -1.2344676    -2.0598150
C           6.3278581    -0.0121277    -0.6337956
H           7.0316469    -0.8529171    -0.5981799
H           6.8031627     0.7620622    -1.2485696
C           0.0759893    -0.7195891    -2.8724812
H          -0.9865303    -0.6544488    -3.0638097
N           0.5611203    -1.2752066    -1.7079137
C           1.8791958    -1.1845933    -1.7831406
N           2.2543552    -0.6181736    -2.9729688
H           3.1996961    -0.4169990    -3.2616345
C           1.1066656    -0.3046309    -3.6739859
H           1.1383472     0.1766122    -4.6399626
O           2.5369767     1.0304482     0.0300840
H           1.7355005     0.4913225    -0.0760753
29
112_C10H16N2O_11-0-22-21 (-120,) energy =    -575.4163133
C           2.8632503    -1.8288103    -0.8110584
H           3.2968088    -2.7414454    -1.2460579
H           2.2267314    -2.1570054     0.0178928
C           6.0683065     0.5509524     0.8110652
H           6.8456709     1.2669387     1.1024822
H           6.1587151    -0.2914679     1.5100316
C           4.6812471     1.1886907     0.9541650
H           4.5426411     1.6138152     1.9544556
H           4.5884145     2.0222724     0.2466634
C           3.5331723     0.2050605     0.6327320
H           3.1440777    -0.2325284     1.5676092
C           4.0262801    -0.9688346    -0.2602021
H           4.5837034    -1.6462316     0.4037187
C           5.0137181    -0.4409933    -1.3118606
H           4.5332248     0.3829269    -1.8539295
H           5.2550970    -1.2188529    -2.0504431
C           6.3149670     0.0651856    -0.6368933
H           7.0688906    -0.7317832    -0.6300343
H           6.7365158     0.8827624    -1.2345752
C           0.1583901    -0.5163720    -2.8193230
H          -0.8904127    -0.2839165    -2.9438425
N           0.6386422    -1.0525963    -1.6427050
C           1.9414872    -1.2041773    -1.8179087
N           2.3070092    -0.8087879    -3.0760665
H           3.2458644    -0.8036906    -3.4462808
C           1.1734950    -0.3564167    -3.7246698
H           1.2034336     0.0220396    -4.7352902
O           2.5190725     0.9931514     0.0135736
H           1.7266749     0.4463725    -0.1267238
29
112_C10H16N2O_11-0-22-21 (-105,) energy =    -575.4181982
C           2.6331711    -1.7483351    -0.8990049
H           2.9899260    -2.7103231    -1.2945194
H           1.9586758    -1.9795100    -0.0684179
C           5.9914447     0.6046321     0.5225214
H           6.7251078     1.3662940     0.8124714
H           6.3882248    -0.3541529     0.8859724
C           4.6327330     0.9043604     1.1910813
H           4.6418947     0.5414188     2.2262302
H           4.4591144     1.9851443     1.2341577
C           3.4273197     0.2949678     0.4410105
H           2.6629393    -0.0016531     1.1767930
C           3.8531528    -0.9566624    -0.3579126
H           4.3318981    -1.6277047     0.3710389
C           4.9017505    -0.5988897    -1.4376396
H           4.3987559    -0.2939868    -2.3606997
H           5.4817224    -1.5022561    -1.6724509
C           5.8464544     0.5482074    -1.0023726
H           6.8254656     0.4323343    -1.4830514
H           5.4296921     1.5016121    -1.3461026
C           0.1546498    -0.1209972    -2.9757372
H          -0.8042470     0.3665077    -3.0868980
N           0.6048448    -0.5422306    -1.7420885
C           1.7986584    -1.0761876    -1.9511787
N           2.1122470    -1.0355392    -3.2843425
H           2.9543498    -1.3979940    -3.7069300
C           1.0697530    -0.4202300    -3.9501142
H           1.0846946    -0.2609214    -5.0177041
O           2.8885812     1.3092534    -0.4122244
H           2.0199159     0.9988290    -0.7239767
29
112_C10H16N2O_11-0-22-21 (-90,) energy =    -575.4206872
C           2.6188317    -1.7367805    -0.9009973
H           2.9835345    -2.6936052    -1.3002595
H           1.9460940    -1.9781152    -0.0708467
C           5.9697327     0.6428075     0.5075680
H           6.6862174     1.4215261     0.7952558
H           6.4175282    -0.3120994     0.8186215
C           4.6296195     0.8651559     1.2440042
H           4.6841096     0.4300638     2.2496662
H           4.4352527     1.9358121     1.3696665
C           3.4096637     0.2839249     0.4958807
H           2.6634787    -0.0473004     1.2371370
C           3.8313152    -0.9373049    -0.3531259
H           4.3340625    -1.6227751     0.3459054
C           4.8484771    -0.5344186    -1.4474069
H           4.3191343    -0.2413201    -2.3604540
H           5.4527434    -1.4167251    -1.7020025
C           5.7658134     0.6329301    -1.0121009
H           6.7290094     0.5679615    -1.5329960
H           5.3006699     1.5796950    -1.3070949
C           0.2709678     0.0784474    -2.9784182
H          -0.5884413     0.7263612    -3.0823752
N           0.7485125    -0.2842992    -1.7366454
C           1.7974506    -1.0607675    -1.9595621
N           1.9920789    -1.2235073    -3.3038608
H           2.7186323    -1.7783047    -3.7329517
C           1.0228713    -0.4960844    -3.9687319
H           0.9642339    -0.4661510    -5.0460884
O           2.8545995     1.3290307    -0.3007602
H           1.9971688     1.0148070    -0.6474220
29
112_C10H16N2O_11-0-22-21 (-75,) energy =    -575.4224436
C           2.6524553    -1.7369898    -0.9211277
H           3.0422698    -2.6821157    -1.3236421
H           1.9881474    -2.0038654    -0.0901214
C           5.9726591     0.6555285     0.5209683
H           6.6818315     1.4338462     0.8273992
H           6.4416349    -0.3031230     0.7861152
C           4.6421464     0.8250760     1.2903955
H           4.7156766     0.3323426     2.2680212
H           4.4417253     1.8849457     1.4806059
C           3.4155213     0.2792159     0.5265371
H           2.6728785    -0.0825262     1.2588081
C           3.8422856    -0.9111251    -0.3651711
H           4.3720820    -1.6017698     0.3084353
C           4.8316051    -0.4551480    -1.4630330
H           4.2780271    -0.1334888    -2.3523603
H           5.4381363    -1.3201870    -1.7669549
C           5.7459963     0.7022833    -0.9955969
H           6.7029299     0.6647886    -1.5307064
H           5.2692100     1.6552688    -1.2472371
C           0.3903979     0.1535154    -3.0321324
H          -0.3635565     0.9180611    -3.1583270
N           0.9388113    -0.1149267    -1.7966294
C           1.8238748    -1.0803230    -1.9864957
N           1.8464992    -1.4494669    -3.3027180
H           2.4292906    -2.1705138    -3.7030514
C           0.9346054    -0.6664251    -3.9850497
H           0.7658625    -0.7707198    -5.0459272
O           2.8666364     1.3584872    -0.2199321
H           2.0410038     1.0430618    -0.6442217
29
112_C10H16N2O_11-0-22-21 (-60,) energy =    -575.4234554
C           2.7012521    -1.7354166    -0.9814030
H           3.1277617    -2.6535991    -1.4083798
H           2.0470836    -2.0567029    -0.1592731
C           5.9723332     0.6356607     0.5807079
H           6.6746391     1.4034572     0.9270054
H           6.4441618    -0.3308627     0.8097433
C           4.6335215     0.7650548     1.3455743
H           4.6949240     0.2143097     2.2927642
H           4.4336346     1.8123393     1.5961193
C           3.4151012     0.2695304     0.5357079
H           2.6529287    -0.1141484     1.2375424
C           3.8576664    -0.8898721    -0.3899882
H           4.3947636    -1.5899724     0.2679638
C           4.8483612    -0.3845489    -1.4634911
H           4.2933029    -0.0190469    -2.3350104
H           5.4521696    -1.2352472    -1.8099276
C           5.7643647     0.7462800    -0.9360728
H           6.7287136     0.7234986    -1.4586334
H           5.2975954     1.7120180    -1.1538527
C           0.4825229     0.2049001    -3.1016408
H          -0.1723371     1.0504927    -3.2591822
N           1.1344102     0.0159801    -1.9030684
C           1.8535169    -1.0861995    -2.0374334
N           1.6742840    -1.6145454    -3.2857361
H           2.1115555    -2.4532332    -3.6394272
C           0.7983212    -0.7998365    -3.9773455
H           0.4984405    -1.0069951    -4.9931427
O           2.9028470     1.3871626    -0.1733948
H           2.1247460     1.0862740    -0.6935977
29
112_C10H16N2O_11-0-22-21 (-45,) energy =    -575.4235994
C           2.7711139    -1.7142437    -1.0365277
H           3.2328268    -2.6018557    -1.4911722
H           2.1341735    -2.0907107    -0.2222711
C           5.9835154     0.6394551     0.6489847
H           6.6773945     1.3952707     1.0362300
H           6.4555761    -0.3335503     0.8483209
C           4.6315808     0.7336821     1.3973360
H           4.6768037     0.1378987     2.3179595
H           4.4272935     1.7679629     1.6938122
C           3.4285742     0.2787510     0.5416000
H           2.6464554    -0.1250125     1.2105733
C           3.8938873    -0.8502599    -0.4111386
H           4.4355657    -1.5571428     0.2355592
C           4.8948398    -0.3015033    -1.4532674
H           4.3494660     0.0968564    -2.3160322
H           5.5046752    -1.1372053    -1.8245992
C           5.8017309     0.8080568    -0.8664084
H           6.7755438     0.8040887    -1.3717452
H           5.3389373     1.7814228    -1.0550776
C           0.5750367     0.2570566    -3.1594997
H           0.0176812     1.1607344    -3.3622998
N           1.3353361     0.1249036    -2.0185283
C           1.8911884    -1.0734375    -2.0721833
N           1.5065285    -1.7157478    -3.2169289
H           1.7915347    -2.6433377    -3.4962100
C           0.6629488    -0.8777022    -3.9207332
H           0.2263142    -1.1605645    -4.8662792
O           2.9470230     1.4277777    -0.1349139
H           2.2356102     1.1433545    -0.7533419
29
112_C10H16N2O_11-0-22-21 (-30,) energy =    -575.4230806
C           2.8392543    -1.7024103    -1.0904850
H           3.3396406    -2.5498469    -1.5808782
H           2.2300531    -2.1426175    -0.2859134
C           5.9766536     0.6635561     0.7017844
H           6.6546973     1.4170497     1.1202956
H           6.4531283    -0.3090791     0.8922713
C           4.6071211     0.7295529     1.4219771
H           4.6343405     0.1062779     2.3250987
H           4.3900139     1.7533645     1.7443627
C           3.4281584     0.2940753     0.5238677
H           2.6261269    -0.1216127     1.1618952
C           3.9254310    -0.8163545    -0.4350103
H           4.4676856    -1.5212700     0.2132035
C           4.9415926    -0.2384636    -1.4464872
H           4.4107281     0.1756032    -2.3103935
H           5.5633979    -1.0627395    -1.8233801
C           5.8303874     0.8617286    -0.8144776
H           6.8166455     0.8701674    -1.2950480
H           5.3695632     1.8373551    -0.9947796
C           0.6369002     0.2746425    -3.2094407
H           0.1613962     1.2102364    -3.4677746
N           1.5043345     0.1829439    -2.1425240
C           1.9142241    -1.0722537    -2.0940936
N           1.3369435    -1.7897272    -3.1065466
H           1.4888863    -2.7700347    -3.2952803
C           0.5155325    -0.9416409    -3.8249967
H          -0.0519434    -1.2758993    -4.6800158
O           2.9705540     1.4584345    -0.1415488
H           2.3291649     1.1827994    -0.8364061
29
112_C10H16N2O_11-0-22-21 (-15,) energy =    -575.4221381
C           2.9047801    -1.7163353    -1.1879792
H           3.4450721    -2.5076954    -1.7283261
H           2.3268428    -2.2343988    -0.4066882
C           5.9473704     0.6538671     0.7464662
H           6.6037726     1.4043509     1.2031735
H           6.4279581    -0.3179579     0.9306238
C           4.5549686     0.6902216     1.4241613
H           4.5585131     0.0449491     2.3122136
H           4.3183600     1.7039278     1.7642905
C           3.4101610     0.2680693     0.4765163
H           2.5883039    -0.1649351     1.0770973
C           3.9500994    -0.8181279    -0.4862442
H           4.4856669    -1.5252170     0.1650162
C           4.9898714    -0.2072651    -1.4545532
H           4.4814807     0.2201350    -2.3250865
H           5.6307529    -1.0177770    -1.8292019
C           5.8484963     0.8850750    -0.7693281
H           6.8499548     0.9112036    -1.2167769
H           5.3866407     1.8613509    -0.9427472
C           0.6905924     0.2804465    -3.2819974
H           0.2841679     1.2321934    -3.5935146
N           1.6487798     0.1988841    -2.2938106
C           1.9323146    -1.0825804    -2.1445929
N           1.1884680    -1.8286153    -3.0189989
H           1.2229723    -2.8332139    -3.1160284
C           0.3887976    -0.9693450    -3.7492721
H          -0.2915285    -1.3217889    -4.5093841
O           2.9718225     1.4459163    -0.1783863
H           2.4066421     1.1836432    -0.9407378
29
112_C10H16N2O_11-0-22-21 (0,) energy =    -575.4210374
C           3.0067951    -1.7276214    -1.2556373
H           3.5822411    -2.4520030    -1.8519756
H           2.4691577    -2.3263720    -0.5043969
C           5.9443178     0.6553213     0.8154830
H           6.5739444     1.4070898     1.3064253
H           6.4301377    -0.3129580     1.0042841
C           4.5276830     0.6638753     1.4429500
H           4.5061674     0.0005168     2.3174062
H           4.2668272     1.6678185     1.7941686
C           3.4256148     0.2474712     0.4446544
H           2.5802599    -0.1953147     1.0038844
C           4.0131348    -0.8205771    -0.5096943
H           4.5417829    -1.5259385     0.1487044
C           5.0749131    -0.1797926    -1.4345574
H           4.5888104     0.2587031    -2.3119016
H           5.7352934    -0.9769016    -1.8039086
C           5.9006494     0.9069640    -0.7001997
H           6.9186625     0.9444601    -1.1076765
H           5.4409577     1.8834460    -0.8774765
C           0.7632083     0.2738803    -3.3150107
H           0.4126254     1.2271442    -3.6843543
N           1.8035381     0.1935387    -2.4128201
C           1.9818198    -1.0894034    -2.1532579
N           1.0914423    -1.8388118    -2.8748862
H           1.0240415    -2.8464472    -2.8670097
C           0.3065224    -0.9787095    -3.6203422
H          -0.4777912    -1.3332432    -4.2715250
O           3.0096081     1.4330792    -0.2136202
H           2.5130358     1.1803265    -1.0242483
29
112_C10H16N2O_11-0-22-21 (15,) energy =    -575.4199214
C           3.0684135    -1.7330133    -1.3613627
H           3.6760816    -2.3745168    -2.0183361
H           2.5759360    -2.4179653    -0.6552022
C           5.8896442     0.6566543     0.8583666
H           6.4907169     1.4087482     1.3833930
H           6.3758924    -0.3092047     1.0579076
C           4.4475266     0.6460299     1.4248756
H           4.3947325    -0.0250249     2.2921202
H           4.1618011     1.6444436     1.7726521
C           3.3947645     0.2273775     0.3758598
H           2.5278689    -0.2244524     0.8930594
C           4.0334346    -0.8258902    -0.5604297
H           4.5450642    -1.5314165     0.1106689
C           5.1238367    -0.1615026    -1.4350647
H           4.6676185     0.2807339    -2.3264858
H           5.8066913    -0.9477359    -1.7862763
C           5.9082949     0.9240994    -0.6553674
H           6.9424316     0.9739652    -1.0185010
H           5.4489226     1.8989745    -0.8418777
C           0.7755329     0.2614557    -3.3686424
H           0.4626953     1.2038213    -3.7955483
N           1.8923315     0.1752943    -2.5634081
C           1.9915683    -1.0887436    -2.1907050
N           0.9762036    -1.8208592    -2.7452909
H           0.8293720    -2.8129950    -2.6265024
C           0.1925264    -0.9689339    -3.5012702
H          -0.6809241    -1.3115489    -4.0347122
O           2.9996571     1.4160591    -0.2926269
H           2.5653708     1.1704532    -1.1388290
29
112_C10H16N2O_11-0-22-21 (30,) energy =    -575.4186906
C           3.1378703    -1.7496186    -1.4746565
H           3.7685832    -2.3003776    -2.1893093
H           2.6927082    -2.5148295    -0.8227514
C           5.8358090     0.6358842     0.9024798
H           6.4056673     1.3877094     1.4615685
H           6.3182249    -0.3283526     1.1181655
C           4.3683580     0.6115111     1.3987851
H           4.2785155    -0.0645888     2.2590140
H           4.0583082     1.6059043     1.7373400
C           3.3720508     0.1899944     0.2978456
H           2.4824242    -0.2676053     0.7688133
C           4.0622829    -0.8512494    -0.6133659
H           4.5502690    -1.5589374     0.0724018
C           5.1836142    -0.1663445    -1.4319795
H           4.7606386     0.2823815    -2.3366367
H           5.8864986    -0.9430665    -1.7640646
C           5.9257507     0.9154749    -0.6066908
H           6.9760306     0.9718743    -0.9188848
H           5.4728298     1.8905986    -0.8072449
C           0.7774714     0.2285651    -3.4107788
H           0.4872602     1.1489084    -3.8977985
N           1.9676893     0.1276767    -2.7209774
C           2.0121793    -1.0991986    -2.2293207
N           0.8905507    -1.7927836    -2.5954041
H           0.6861379    -2.7530669    -2.3585577
C           0.0935192    -0.9553697    -3.3531470
H          -0.8573451    -1.2722645    -3.7534641
O           3.0030257     1.3809348    -0.3851503
H           2.6206497     1.1409613    -1.2556717
29
112_C10H16N2O_11-0-22-21 (45,) energy =    -575.4173520
C           3.2067007    -1.7682004    -1.5822928
H           3.8561716    -2.2432012    -2.3318731
H           2.7929719    -2.5900990    -0.9817136
C           5.7698444     0.6238241     0.9434012
H           6.3010854     1.3802620     1.5333885
H           6.2605968    -0.3335736     1.1701660
C           4.2838972     0.5672283     1.3767946
H           4.1712069    -0.1152898     2.2291852
H           3.9396452     1.5532330     1.7070538
C           3.3437264     0.1311757     0.2336821
H           2.4458996    -0.3481995     0.6650233
C           4.0896596    -0.8829547    -0.6609086
H           4.5612387    -1.5953212     0.0312087
C           5.2284647    -0.1638377    -1.4245930
H           4.8303026     0.2887265    -2.3387601
H           5.9575593    -0.9222545    -1.7415964
C           5.9180511     0.9203122    -0.5578427
H           6.9794535     0.9960480    -0.8247875
H           5.4596969     1.8911066    -0.7678592
C           0.8043728     0.1960663    -3.4724295
H           0.5379601     1.0784427    -4.0374355
N           2.0597737     0.0524718    -2.9191362
C           2.0536471    -1.1087234    -2.2840234
N           0.8370317    -1.7178946    -2.4255582
H           0.5794174    -2.6170315    -2.0444816
C           0.0277463    -0.8942155    -3.1849306
H          -0.9898771    -1.1555634    -3.4318388
O           2.9714697     1.3203680    -0.4563332
H           2.6570948     1.0856545    -1.3520297
29
112_C10H16N2O_11-0-22-21 (60,) energy =    -575.4160649
C           3.2459400    -1.8274352    -1.6263273
H           3.9084835    -2.2987199    -2.3643452
H           2.8140816    -2.6466405    -1.0359153
C           5.7051869     0.6552666     0.9269187
H           6.1936039     1.4358053     1.5224015
H           6.2553601    -0.2731011     1.1372072
C           4.2299141     0.5014785     1.3707420
H           4.1675720    -0.1880718     2.2225608
H           3.8245894     1.4623360     1.7062347
C           3.3116672     0.0054597     0.2352356
H           2.4570779    -0.5413707     0.6729129
C           4.1075631    -0.9399454    -0.6865752
H           4.6151516    -1.6489051    -0.0165693
C           5.2015031    -0.1460993    -1.4427554
H           4.7800336     0.2803152    -2.3589623
H           5.9778118    -0.8563986    -1.7583941
C           5.8192163     0.9765873    -0.5716440
H           6.8697999     1.1302366    -0.8471322
H           5.2925286     1.9155012    -0.7683107
C           0.9351769     0.1310321    -3.6263945
H           0.7313479     0.9258613    -4.3306628
N           2.2197226    -0.1337117    -3.1986527
C           2.1202823    -1.1450085    -2.3491318
N           0.8150939    -1.5382838    -2.2271464
H           0.4757965    -2.2870483    -1.6403748
C           0.0450739    -0.7298229    -3.0402819
H          -1.0257489    -0.8419613    -3.1157170
O           2.8302275     1.1691618    -0.4397973
H           2.6017036     0.9378850    -1.3569924
29
112_C10H16N2O_11-0-22-21 (75,) energy =    -575.4165596
C           2.1678974    -1.8541274    -0.3556622
H           2.3080381    -2.8951983    -0.6715952
H           1.4228388    -1.8594514     0.4445504
C           5.4621294     0.8800614    -0.5942997
H           5.6638883     1.2407518    -1.6095808
H           6.0875079     1.4825113     0.0766007
C           3.9648969     1.1075684    -0.2722965
H           3.8104889     2.1274799     0.1079095
H           3.3582455     1.0163977    -1.1796188
C           3.4743514     0.0907052     0.7637137
H           4.1481458     0.1454371     1.6339962
C           3.5238067    -1.3644703     0.2196820
H           3.7224904    -2.0152705     1.0823541
C           4.6821515    -1.5344043    -0.7947752
H           4.3140421    -1.3219674    -1.8052201
H           5.0028157    -2.5835972    -0.7984588
C           5.8648299    -0.6108852    -0.4744172
H           6.2249235    -0.8204740     0.5427686
H           6.7063305    -0.8256233    -1.1435101
C           1.3230886    -0.1842909    -3.4576308
H           1.4557575    -0.0262586    -4.5197625
N           2.0538829    -1.1358866    -2.7789452
C           1.6289629    -1.0868680    -1.5263606
N           0.6548326    -0.1362534    -1.3806987
H           0.3303185     0.1928206    -0.4820386
C           0.4587896     0.4605749    -2.6088261
H          -0.2729086     1.2397013    -2.7618147
O           2.1376549     0.3689018     1.2191710
H           2.1583669     1.2491691     1.6258614
29
112_C10H16N2O_11-0-22-21 (90,) energy =    -575.4181387
C           2.1670553    -1.8708060    -0.3760166
H           2.3284660    -2.9017432    -0.7099752
H           1.4242347    -1.9016120     0.4267683
C           5.4650041     0.9074942    -0.5272104
H           5.6818282     1.3100568    -1.5234836
H           6.0855335     1.4768250     0.1761626
C           3.9654778     1.1322408    -0.2159520
H           3.8114280     2.1398793     0.1952868
H           3.3700032     1.0758596    -1.1334973
C           3.4512710     0.0868206     0.7797362
H           4.1024190     0.1192632     1.6673674
C           3.5126608    -1.3574740     0.2043333
H           3.7324230    -2.0209256     1.0520458
C           4.6642447    -1.4897529    -0.8220618
H           4.2934203    -1.2330446    -1.8219465
H           4.9758731    -2.5400826    -0.8744235
C           5.8549997    -0.5903328    -0.4667743
H           6.2104471    -0.8440127     0.5419575
H           6.6959699    -0.7859388    -1.1422065
C           1.1692585    -0.3555625    -3.5083237
H           1.1762114    -0.3150611    -4.5895785
N           1.8463208    -1.3423711    -2.8241619
C           1.6113194    -1.1103840    -1.5423625
N           0.8066950    -0.0154331    -1.3825114
H           0.6483131     0.4192339    -0.4821559
C           0.5265539     0.4873967    -2.6359712
H          -0.1019384     1.3530126    -2.7834470
O           2.1037973     0.3627578     1.2142800
H           2.1316503     1.2004398     1.7024630
29
112_C10H16N2O_11-0-22-21 (105,) energy =    -575.4187388
C           2.1704357    -1.8760174    -0.4153371
H           2.3500825    -2.9011505    -0.7552793
H           1.4335044    -1.9263372     0.3934607
C           5.5149698     0.9237005    -0.4212499
H           5.7803580     1.3984677    -1.3729930
H           6.1208222     1.4186269     0.3480270
C           4.0122563     1.1656802    -0.1499684
H           3.8637743     2.1588029     0.2969651
H           3.4477338     1.1587738    -1.0887328
C           3.4365198     0.0931160     0.7814804
H           4.0405532     0.0861367     1.7019110
C           3.5062377    -1.3362746     0.1630193
H           3.7541854    -2.0170841     0.9888721
C           4.6476020    -1.4260836    -0.8775478
H           4.2804585    -1.0929890    -1.8566830
H           4.9309175    -2.4779740    -1.0036571
C           5.8625349    -0.5856492    -0.4653040
H           6.2069786    -0.9186409     0.5239746
H           6.6993368    -0.7593183    -1.1516876
C           0.9282102    -0.5548321    -3.5460726
H           0.7809734    -0.6289375    -4.6154747
N           1.5918966    -1.5381819    -2.8443890
C           1.5842644    -1.1388528    -1.5826123
N           0.9338056     0.0571987    -1.4503774
H           0.8925475     0.5625970    -0.5727083
C           0.5149872     0.4481393    -2.7043864
H          -0.0287479     1.3661437    -2.8712285
O           2.0735118     0.3846003     1.1567400
H           2.0934252     1.1932166     1.6922049
29
112_C10H16N2O_11-0-22-21 (120,) energy =    -575.4185659
C           2.1786845    -1.5946988    -0.2342762
H           2.3527186    -2.6695371    -0.3395892
H           1.5509406    -1.4606071     0.6571863
C           5.9764497     0.4649252     0.3558848
H           6.8592020     1.1131650     0.3153118
H           6.1339989    -0.2073037     1.2102383
C           4.7143554     1.3011428     0.6041356
H           4.8503041     1.9772608     1.4591518
H           4.5190987     1.9329271    -0.2727924
C           3.4728509     0.4130693     0.8261765
H           3.4042264     0.1360393     1.8895929
C           3.5480575    -0.8990535     0.0022249
H           4.1156306    -1.5891863     0.6430047
C           4.3735120    -0.7025626    -1.2806672
H           3.9189690     0.0943702    -1.8813136
H           4.3231919    -1.6061964    -1.8982103
C           5.8446284    -0.3533072    -0.9525921
H           6.4372740    -1.2723562    -0.8659873
H           6.2756406     0.2115016    -1.7883558
C           0.3741769    -1.2748479    -3.3470215
H          -0.0355573    -1.7099967    -4.2490729
N           1.0684638    -2.0384020    -2.4348246
C           1.4168327    -1.2035251    -1.4679297
N           0.9708677     0.0615621    -1.7264260
H           1.1760103     0.8503420    -1.1235759