13
151_C3H8O2_1-0-5-10 (-165,) energy =    -269.5508183
O           2.2381194     0.6119418     0.4385768
C           0.8609028     0.8157475     0.1967893
H           0.5529586     1.6790731     0.7925712
H           0.2631195    -0.0598500     0.4947132
H           0.6617556     1.0272492    -0.8654945
C           2.7755535    -0.5086759    -0.2509369
H           2.8830666    -0.2933333    -1.3271276
H           2.1092829    -1.3788999    -0.1370934
O           3.9723009    -1.0980589     1.7711348
H           3.4302065    -0.3718705     2.1228647
C           4.1209817    -0.8111087     0.3920734
H           4.8001444     0.0417899     0.2289239
H           4.5689801    -1.6936616    -0.0765253
13
151_C3H8O2_1-0-5-10 (-150,) energy =    -269.5497737
O           2.2915716     0.6952938     0.3095421
C           0.8819540     0.7896767     0.2442770
H           0.5945185     1.6821155     0.8067749
H           0.3955710    -0.0908269     0.6914194
H           0.5259267     0.8953471    -0.7922169
C           2.8268619    -0.4557879    -0.3363137
H           3.0188219    -0.2514699    -1.4017193
H           2.1164431    -1.2934550    -0.2660765
O           3.8384586    -1.0819631     1.7715722
H           3.3270386    -0.3119355     2.0732796
C           4.1048806    -0.8248643     0.4048126
H           4.8435960    -0.0153426     0.2844212
H           4.5340147    -1.7379837    -0.0211261
13
151_C3H8O2_1-0-5-10 (-135,) energy =    -269.5483134
O           2.3234033     0.7594701     0.1812290
C           0.9126287     0.7545859     0.2984600
H           0.6335114     1.6783400     0.8129360
H           0.5561081    -0.1056099     0.8847637
H           0.4182203     0.7364524    -0.6848351
C           2.8707927    -0.4150096    -0.4174942
H           3.1580281    -0.2110014    -1.4600175
H           2.1277385    -1.2247757    -0.4145968
O           3.6905041    -1.0637247     1.7663690
H           3.2346084    -0.2472191     2.0325297
C           4.0708868    -0.8391414     0.4205320
H           4.8576321    -0.0702322     0.3497347
H           4.4837783    -1.7786163     0.0377891
13
151_C3H8O2_1-0-5-10 (-120,) energy =    -269.5471517
O           2.3297128     0.8141458     0.0438783
C           0.9485070     0.7203425     0.3461456
H           0.6586386     1.6730290     0.7985748
H           0.7398095    -0.0934185     1.0559481
H           0.3409591     0.5613287    -0.5577477
C           2.8984890    -0.3789008    -0.4984283
H           3.2867213    -0.1687535    -1.5053119
H           2.1355257    -1.1643886    -0.5805506
O           3.5307496    -1.0441140     1.7486569
H           3.1601662    -0.1848545     2.0101388
C           4.0139074    -0.8474640     0.4297543
H           4.8361829    -0.1139726     0.4133638
H           4.4137648    -1.8077753     0.0865467
13
151_C3H8O2_1-0-5-10 (-105,) energy =    -269.5463900
O           2.3123005     0.8968562    -0.0863712
C           0.9907634     0.7357033     0.4038112
H           0.6785956     1.7089452     0.7935488
H           0.9353672    -0.0117929     1.2066893
H           0.2958331     0.4383089    -0.3967882
C           2.9132066    -0.3091505    -0.5549948
H           3.4009923    -0.0948017    -1.5156130
H           2.1472254    -1.0783343    -0.7253980
O           3.3819017    -0.9973847     1.7449968
H           3.1196371    -0.1129127     2.0458331
C           3.9437607    -0.8116817     0.4532677
H           4.7891655    -0.1067826     0.4918721
H           4.3345070    -1.7847126     0.1351001
13
151_C3H8O2_1-0-5-10 (-90,) energy =    -269.5451227
O           2.2560398     0.9034189    -0.2801155
C           1.0325440     0.7461004     0.4185021
H           0.6600796     1.7529032     0.6278734
H           1.1454156     0.1964388     1.3606612
H           0.2871807     0.2144699    -0.1945663
C           2.9076159    -0.3136078    -0.6201159
H           3.4728796    -0.1192667    -1.5409999
H           2.1661115    -1.0988849    -0.8353924
O           3.2573916    -1.1430977     1.6890961
H           3.0993656    -0.3138323     2.1636574
C           3.8780923    -0.8044969     0.4523175
H           4.6622217    -0.0474233     0.6034804
H           4.3659274    -1.7179466     0.0904012
13
151_C3H8O2_1-0-5-10 (-75,) energy =    -269.5452523
O           1.4256964    -0.2007988    -0.4467166
C           1.1926655     0.8822132     0.4396704
H           0.3216020     1.4181618     0.0522804
H           2.0486162     1.5630117     0.4998503
H           0.9605721     0.5209591     1.4557714
C           2.4176308    -1.1142361    -0.0277578
H           2.2907903    -2.0004739    -0.6622391
H           2.2394328    -1.4290579     1.0187765
O           4.2359408     0.3892524     0.7572586
H           4.1830801     0.0046901     1.6464432
C           3.8579562    -0.6211216    -0.1729072
H           3.9833875    -0.1737055    -1.1637633
H           4.5345889    -1.4908567    -0.1090245
13
151_C3H8O2_1-0-5-10 (-60,) energy =    -269.5443904
O           1.3417737    -0.2948299    -0.3685028
C           1.2406851     0.8977516     0.3928511
H           0.3038392     1.3741033     0.0900727
H           2.0755870     1.5838739     0.2150341
H           1.1972473     0.6842359     1.4734898
C           2.4050860    -1.1559816    -0.0212459
H           2.3163917    -2.0123676    -0.7001955
H           2.2696005    -1.5380139     1.0106887
O           4.1694998     0.3481837     0.8811452
H           4.1328734    -0.1228961     1.7284097
C           3.8165580    -0.5764702    -0.1416532
H           3.9057149    -0.0274780    -1.0847399
H           4.5316877    -1.4161081    -0.1770072
13
151_C3H8O2_1-0-5-10 (-45,) energy =    -269.5425381
O           1.2734944    -0.3699830    -0.2570588
C           1.2674941     0.9091196     0.3547204
H           0.3002394     1.3546174     0.1052081
H           2.0692040     1.5591623    -0.0137226
H           1.3601055     0.8442447     1.4497610
C           2.3984097    -1.1904525    -0.0123706
H           2.3318137    -2.0002491    -0.7485706
H           2.3179506    -1.6553631     0.9911724
O           4.1142005     0.3089444     0.9796400
H           4.1097711    -0.2335943     1.7838482
C           3.7794483    -0.5389742    -0.1121444
H           3.8347623     0.0886791    -1.0078367
H           4.5248982    -1.3436550    -0.2292905
13
151_C3H8O2_1-0-5-10 (-30,) energy =    -269.5402183
O           1.2311965    -0.4172672    -0.1215754
C           1.2813885     0.9247099     0.3321576
H           0.2887359     1.3386261     0.1330004
H           2.0278237     1.5265265    -0.2004901
H           1.4931709     0.9980593     1.4082482
C           2.3990881    -1.2105143    -0.0061550
H           2.3359579    -1.9540929    -0.8106865
H           2.3719235    -1.7707447     0.9496730
O           4.0813344     0.2745024     1.0529808
H           4.0812236    -0.3121109     1.8258742
C           3.7585072    -0.5155891    -0.0838650
H           3.7991344     0.1631207    -0.9420663
H           4.5185418    -1.2970135    -0.2528892
13
151_C3H8O2_1-0-5-10 (-15,) energy =    -269.5383207
O           1.2094922    -0.4450774     0.0054117
C           1.2844258     0.9413377     0.2914983
H           0.2563327     1.3085713     0.2256052
H           1.8946449     1.4931253    -0.4368766
H           1.6820078     1.1466956     1.2930818
C           2.4006707    -1.2168475     0.0016704
H           2.3420409    -1.8836121    -0.8703272
H           2.4013812    -1.8677068     0.8961294
O           4.0694581     0.2212878     1.1428453
H           4.0651395    -0.4108173     1.8792486
C           3.7485650    -0.4990157    -0.0403540
H           3.7822039     0.2329084    -0.8531003
H           4.5143629    -1.2614209    -0.2623248
13
151_C3H8O2_1-0-5-10 (0,) energy =    -269.5380010
O           1.2041659    -0.4512839     0.1283857
C           1.2806179     0.9610453     0.2303005
H           0.2573146     1.2982124     0.4180879
H           1.6275673     1.4327281    -0.7025199
H           1.9305827     1.2872641     1.0496796
C           2.4063499    -1.1999261     0.0235822
H           2.3589139    -1.7847845    -0.9091322
H           2.4178711    -1.9306678     0.8502910
O           4.0681349     0.1700071     1.2581216
H           4.0556071    -0.5129862     1.9475215
C           3.7420201    -0.4596949     0.0240557
H           3.7534080     0.3364070    -0.7258246
H           4.5169818    -1.1885098    -0.2673429
13
151_C3H8O2_1-0-5-10 (15,) energy =    -269.5392000
O           1.2211067    -0.4582180     0.2649058
C           1.2850794     0.9562438     0.1989671
H           0.2910234     1.3101565     0.4861415
H           1.4952950     1.3224361    -0.8192416
H           2.0308086     1.3694841     0.8871464
C           2.4092674    -1.1972980     0.0280349
H           2.3393782    -1.6838389    -0.9608905
H           2.4295283    -2.0064931     0.7743285
O           4.0680228     0.1232140     1.3171200
H           4.0210008    -0.5766521     1.9876517
C           3.7455514    -0.4597034     0.0600785
H           3.7576351     0.3651737    -0.6579300
H           4.5200432    -1.1770796    -0.2604247
13
151_C3H8O2_1-0-5-10 (30,) energy =    -269.5411687
O           1.2610615    -0.4341115     0.4517465
C           1.2792398     0.9623647     0.2149729
H           0.3096300     1.3357367     0.5556883
H           1.3839769     1.2058433    -0.8553151
H           2.0754434     1.4637984     0.7774494
C           2.4114292    -1.1676196     0.0681606
H           2.2881857    -1.5558982    -0.9599980
H           2.4420014    -2.0403840     0.7354121
O           4.0846166     0.1077770     1.3761850
H           3.9754061    -0.5900216     2.0413287
C           3.7559873    -0.4439929     0.1084145
H           3.7684040     0.3982432    -0.5893957
H           4.5235457    -1.1580827    -0.2365242
13
151_C3H8O2_1-0-5-10 (45,) energy =    -269.5442616
O           1.3669341    -0.4570698     0.6479717
C           1.3109208     0.9187137     0.3079236
H           0.3951942     1.3057949     0.7620538
H           1.2559348     1.0741968    -0.7811012
H           2.1655415     1.4885041     0.6979917
C           2.4285124    -1.2089276     0.0618767
H           2.1880192    -1.4450578    -0.9894634
H           2.4605594    -2.1455689     0.6269352
O           4.1722869    -0.2075217     1.4437505
H           3.3543545    -0.0272988     1.9347823
C           3.7850488    -0.5173578     0.1116277
H           3.7790573     0.3859346    -0.5178045
H           4.5426354    -1.1931130    -0.3025467
13
151_C3H8O2_1-0-5-10 (60,) energy =    -269.5470041
O           1.4526015    -0.4111160     0.7470683
C           1.2754591     0.9163836     0.2783713
H           0.3975356     1.3117931     0.7955991
H           1.0898125     0.9414376    -0.8067776
H           2.1356571     1.5628231     0.5008865
C           2.4452267    -1.1663791     0.0565771
H           2.1580621    -1.3016223    -1.0002170
H           2.4478405    -2.1446304     0.5465823
O           4.2001176    -0.3011155     1.4932290
H           3.3776170    -0.0678044     1.9562353
C           3.8314728    -0.5347642     0.1432890
H           3.8681679     0.3959879    -0.4456468
H           4.5700157    -1.2192579    -0.2901158
13
151_C3H8O2_1-0-5-10 (75,) energy =    -269.5484006
O           1.5354669    -0.3435620     0.7997109
C           1.2102353     0.9122496     0.2267026
H           0.4269754     1.3481093     0.8521840
H           0.8251003     0.7951033    -0.7980408
H           2.0644539     1.6035917     0.2005973
C           2.4727972    -1.1106382     0.0469891
H           2.1737229    -1.1593268    -1.0129319
H           2.4254734    -2.1180695     0.4721801
O           4.2508276    -0.4642693     1.5578339
H           3.4539773    -0.1400211     2.0120110
C           3.8902562    -0.5619988     0.1908883
H           3.9799396     0.4130155    -0.3171463
H           4.6005722    -1.2438193    -0.2905750
13
151_C3H8O2_1-0-5-10 (90,) energy =    -269.5485572
O           1.6155318    -0.2465630     0.8360987
C           1.1321275     0.9158346     0.1857651
H           0.4823293     1.4307920     0.8981691
H           0.5461753     0.6562144    -0.7090533
H           1.9392597     1.6010065    -0.1134440
C           2.4960179    -1.0378815     0.0376787
H           2.2052308    -1.0035929    -1.0234682
H           2.3839151    -2.0660209     0.3984332
O           4.2844824    -0.6220816     1.6129841
H           3.5295224    -0.2177820     2.0745073
C           3.9399900    -0.5868266     0.2398079
H           4.0842768     0.4225270    -0.1834280
H           4.6232970    -1.2629653    -0.2863776
13
151_C3H8O2_1-0-5-10 (105,) energy =    -269.5477817
O           1.7082083    -0.1381761     0.8310178
C           1.0616191     0.9158791     0.1423155
H           0.4983427     1.4846747     0.8870358
H           0.3617159     0.5311537    -0.6146583
H           1.7741969     1.5933445    -0.3528971
C           2.5295235    -0.9688070     0.0069671
H           2.2715554    -0.8573048    -1.0557290
H           2.3331010    -2.0050701     0.3067752
O           4.2964983    -0.7482972     1.6453050
H           3.5800061    -0.2737148     2.1010940
C           3.9946821    -0.6332169     0.2666832
H           4.2140644     0.3819197    -0.1080168
H           4.6465112    -1.3327756    -0.2688045
13
151_C3H8O2_1-0-5-10 (120,) energy =    -269.5471607
O           1.7970817    -0.0202558     0.8206908
C           0.9864942     0.9067380     0.1261550
H           0.4960277     1.5289032     0.8798597
H           0.2131933     0.4025406    -0.4730147
H           1.5754130     1.5570784    -0.5391657
C           2.5622164    -0.8953741    -0.0112046
H           2.3571307    -0.7158931    -1.0757142
H           2.2765387    -1.9278129     0.2292264
O           4.2911864    -0.8486517     1.6852264
H           3.6198408    -0.3085828     2.1361774
C           4.0376900    -0.6762846     0.3026912
H           4.3361520     0.3303627    -0.0372887
H           4.6540479    -1.4074917    -0.2324822
13
151_C3H8O2_1-0-5-10 (135,) energy =    -269.5474808
O           1.8968186     0.1146943     0.7940833
C           0.9328752     0.8989272     0.1225753
H           0.5066585     1.5835064     0.8610924
H           0.1217890     0.2837161    -0.2967190
H           1.3798147     1.4892515    -0.6924982
C           2.6014172    -0.8120674    -0.0311687
H           2.4571607    -0.5829372    -1.0972290
H           2.2242861    -1.8266646     0.1607020
O           4.2827524    -0.9371715     1.7145177
H           3.6546254    -0.3495481     2.1674271
C           4.0772478    -0.7114027     0.3310055
H           4.4537084     0.2793533     0.0259303
H           4.6528301    -1.4725920    -0.2074809
13
151_C3H8O2_1-0-5-10 (150,) energy =    -269.5486491
O           1.9872643     0.2541322     0.7313080
C           0.8872890     0.8823639     0.1080090
H           0.5000515     1.6246667     0.8112393
H           0.0838247     0.1672410    -0.1288188
H           1.1847498     1.3917974    -0.8219715
C           2.6364085    -0.7283750    -0.0680814
H           2.5556575    -0.4798587    -1.1382436
H           2.1728593    -1.7133691     0.0949441
O           4.2406726    -1.0138045     1.7339763
H           3.6516877    -0.3854828     2.1839852
C           4.0995555    -0.7423879     0.3501883
H           4.5544988     0.2252436     0.0818590
H           4.6376616    -1.5312637    -0.1866846
13
151_C3H8O2_1-0-5-10 (165,) energy =    -269.5500381
O           2.0826376     0.3898096     0.6558931
C           0.8626859     0.8624988     0.1256195
H           0.5055849     1.6530012     0.7910237
H           0.1013850     0.0678184     0.0763294
H           0.9968986     1.2780831    -0.8855070
C           2.6788615    -0.6451291    -0.1131046
H           2.6538961    -0.3973135    -1.1875685
H           2.1368866    -1.5929036     0.0354868
O           4.1833911    -1.0690259     1.7462429
H           3.6144497    -0.4132392     2.1824173
C           4.1182566    -0.7682855     0.3627035
H           4.6512190     0.1676266     0.1285970
H           4.6192217    -1.5859641    -0.1664883
13
151_C3H8O2_1-0-5-10 (180,) energy =    -269.5509114
O           2.1679087     0.5101187     0.5575197
C           0.8553165     0.8404001     0.1545473
H           0.5247175     1.6741749     0.7794606
H           0.1629221    -0.0057041     0.2891917
H           0.8235306     1.1503197    -0.9018735
C           2.7267570    -0.5706660    -0.1743484
H           2.7661335    -0.3349575    -1.2515709
H           2.1153344    -1.4781212    -0.0417185
O           4.0891108    -1.0969516     1.7633950
H           3.5293103    -0.4104572     2.1630402
C           4.1254893    -0.7928441     0.3797779
H           4.7358756     0.1029151     0.1799489
H           4.5964512    -1.6431960    -0.1245808
