17
164_C5H9NO2_4-0-2-12 (-165,) energy =    -401.1140892
N           1.3710157    -0.8510909    -0.1460788
H           1.3683122    -0.0250812     0.4359584
C           2.5721781    -1.2638034    -0.6583090
O           2.7116915    -2.3148144    -1.2738844
C           0.2297428    -1.7469399    -0.0441051
H           0.1309231    -2.1637537     0.9667378
H          -0.6952357    -1.2220406    -0.3036148
H           0.3901417    -2.5643439    -0.7480811
C           4.7729500    -0.1733226    -1.5264795
H           4.9261688     0.8497572    -1.8897025
H           4.5918065    -0.8519127    -2.3677029
O           5.8663688    -0.6225148    -0.6956528
C           3.7515799    -0.3476304    -0.3786501
H           3.4489028     0.6019066     0.0740995
C           4.9523117    -1.0085264     0.3491258
H           4.8627277    -2.0983066     0.4348588
H           5.2271728    -0.5774871     1.3195673
17
164_C5H9NO2_4-0-2-12 (-150,) energy =    -401.1113953
N           1.3445041    -0.7919768    -0.2546473
H           1.3872535    -0.0213252     0.4000883
C           2.5363746    -1.1425951    -0.8457379
O           2.6601231    -2.1346281    -1.5528250
C           0.3264896    -1.7969854     0.0285080
H           0.4724937    -2.2560645     1.0155323
H          -0.6709467    -1.3491612    -0.0121215
H           0.4013237    -2.5719560    -0.7351575
C           4.8670270    -0.1801979    -1.5110457
H           5.1259280     0.8288863    -1.8522957
H           4.7231444    -0.8472173    -2.3680462
O           5.8417700    -0.7010680    -0.5773588
C           3.7306794    -0.2804341    -0.4718789
H           3.4344597     0.6879302    -0.0559673
C           4.8121849    -1.0005636     0.3820786
H           4.6466877    -2.0803909     0.4857382
H           5.0201598    -0.5608265     1.3654587
17
164_C5H9NO2_4-0-2-12 (-135,) energy =    -401.1067030
N           1.2843203    -0.7663104    -0.3670583
H           1.3606944    -0.0047425     0.2979158
C           2.4730988    -1.0732422    -1.0061597
O           2.5778381    -2.0166410    -1.7770094
C           0.4101865    -1.8448040     0.0940441
H           0.7456464    -2.2599312     1.0543380
H          -0.6142647    -1.4773095     0.2027942
H           0.4230086    -2.6357612    -0.6569526
C           4.9023789    -0.2545536    -1.5007279
H           5.2600253     0.7357240    -1.8056567
H           4.7768166    -0.9009934    -2.3758709
O           5.7630560    -0.8546603    -0.5025963
C           3.6879590    -0.2800086    -0.5523287
H           3.4194434     0.7045089    -0.1553046
C           4.6509889    -1.0671648     0.3833037
H           4.4033733    -2.1314596     0.4876468
H           4.8188744    -0.6288573     1.3751424
17
164_C5H9NO2_4-0-2-12 (-120,) energy =    -401.1003869
N           1.2727236    -0.7486483    -0.5042726
H           1.3371108     0.0368248     0.1365032
C           2.4843554    -1.0002469    -1.1475883
O           2.6029875    -1.8937950    -1.9706414
C           0.5648525    -1.8734006     0.1176666
H           1.0393652    -2.1945921     1.0556271
H          -0.4713827    -1.5898858     0.3224788
H           0.5641261    -2.7095537    -0.5835137
C           4.9739236    -0.2658222    -1.4593126
H           5.3936454     0.7147736    -1.7114572
H           4.8854907    -0.8854602    -2.3579627
O           5.7352451    -0.9257757    -0.4179873
C           3.6958439    -0.2618555    -0.6002346
H           3.4377790     0.7234642    -0.1979006
C           4.5573778    -1.1064788     0.3850196
H           4.2610916    -2.1614904     0.4526602
H           4.6727050    -0.6919935     1.3944383
17
164_C5H9NO2_4-0-2-12 (-105,) energy =    -401.0932411
N           1.2012500    -0.7338125    -0.5951378
H           1.2466399     0.0987983    -0.0114310
C           2.4400891    -0.9452052    -1.2307508
O           2.5701722    -1.7913056    -2.0970704
C           0.6710017    -1.8488209     0.2063621
H           1.2687651    -2.0485994     1.1077317
H          -0.3551901    -1.6199789     0.5069383
H           0.6550289    -2.7478062    -0.4132166
C           4.9613735    -0.2653050    -1.4141100
H           5.4138363     0.7117854    -1.6183348
H           4.8994880    -0.8564308    -2.3339499
O           5.6605846    -0.9728631    -0.3600766
C           3.6470780    -0.2564215    -0.6121058
H           3.3965723     0.7214733    -0.1875256
C           4.4448238    -1.1522101     0.3835642
H           4.1245535    -2.2022281     0.4040506
H           4.5225434    -0.7725317     1.4100309
17
164_C5H9NO2_4-0-2-12 (-90,) energy =    -401.0942558
N           1.4042531    -0.6447303    -0.7894808
H           0.8819966    -0.8883345    -1.6336811
C           2.5722615    -1.4527667    -0.8471092
O           2.6710749    -2.3886091    -1.6206014
C           0.5040180    -0.9008983     0.3540379
H          -0.3424240    -0.2111517     0.2989093
H           0.1259024    -1.9323223     0.3740501
H           1.0317084    -0.7076912     1.2938054
C           4.6785909     0.0062484    -1.0324443
H           4.7989171     1.0493295    -0.7170041
H           4.4238366    -0.0276373    -2.0994444
O           5.8300948    -0.7995149    -0.7233956
C           3.7651910    -0.8684170    -0.1236116
H           3.4659714    -0.3460040     0.7889912
C           5.0227875    -1.7446792     0.0196144
H           4.9437022    -2.7090103    -0.4942971
H           5.3996744    -1.8891333     1.0389910
17
164_C5H9NO2_4-0-2-12 (-75,) energy =    -401.0996777
N           1.3392492    -0.7421572    -0.8375254
H           0.7664582    -1.0420944    -1.6271179
C           2.5634485    -1.4217231    -0.9649353
O           2.7466946    -2.2507490    -1.8417999
C           0.5580611    -0.9042922     0.3999129
H          -0.3098782    -0.2402810     0.3620944
H           0.2102567    -1.9356664     0.5492434
H           1.1607686    -0.6146663     1.2657769
C           4.6936796     0.0211574    -1.0164576
H           4.8045124     1.0642981    -0.6971653
H           4.5063496    -0.0182496    -2.0965875
O           5.8166212    -0.7922513    -0.6302063
C           3.7133266    -0.8399785    -0.1676008
H           3.3732650    -0.3198856     0.7309376
C           4.9518467    -1.7326223     0.0477915
H           4.8947137    -2.6905609    -0.4812082
H           5.2587146    -1.8926793     1.0883155
17
164_C5H9NO2_4-0-2-12 (-60,) energy =    -401.1039396
N           1.3049203    -0.8287673    -0.8540820
H           0.6985843    -1.1716661    -1.5976446
C           2.5734620    -1.3611679    -1.0767664
O           2.8003469    -2.0729420    -2.0450275
C           0.6408019    -0.9188705     0.4508938
H          -0.2801919    -0.3301843     0.4207905
H           0.3896702    -1.9517741     0.7291265
H           1.2779724    -0.4962545     1.2319420
C           4.7714888    -0.0080960    -1.0206406
H           4.9005209     1.0385900    -0.7206620
H           4.6537327    -0.0757365    -2.1085833
O           5.8372566    -0.8491446    -0.5381741
C           3.7043434    -0.8137875    -0.2270359
H           3.3519771    -0.2780477     0.6564353
C           4.8901542    -1.7623835     0.0580864
H           4.8300948    -2.7072703    -0.4944362
H           5.1156898    -1.9554259     1.1137422
17
164_C5H9NO2_4-0-2-12 (-45,) energy =    -401.1068035
N           1.2333397    -0.9117757    -0.8369533
H           0.5960316    -1.2900748    -1.5333972
C           2.5237113    -1.2947933    -1.1608054
O           2.7578221    -1.9001234    -2.1994047
C           0.6767425    -0.9186053     0.5153212
H          -0.3119408    -0.4524173     0.4887956
H           0.5740133    -1.9308748     0.9308852
H           1.2993660    -0.3283469     1.1916366
C           4.7842917    -0.0404143    -1.0487258
H           4.9565098     1.0005728    -0.7505395
H           4.6943672    -0.1130905    -2.1383801
O           5.7951804    -0.9284065    -0.5286836
C           3.6562383    -0.7870882    -0.2875443
H           3.3122626    -0.2390921     0.5910260
C           4.7874884    -1.7958975     0.0306266
H           4.6996519    -2.7350162    -0.5287179
H           4.9673421    -2.0051499     1.0920872
17
164_C5H9NO2_4-0-2-12 (-30,) energy =    -401.1085268
N           1.2179361    -1.0354141    -0.8388152
H           0.5649763    -1.4536750    -1.4932602
C           2.5135888    -1.3481753    -1.1838369
O           2.7618244    -1.9324596    -2.2325323
C           0.7041077    -0.8191561     0.5098145
H          -0.3631244    -0.5960186     0.4361040
H           0.8280835    -1.6928153     1.1644875
H           1.1846798     0.0424246     0.9816698
C           4.7086772     0.0180139    -1.0140232
H           4.8362758     1.0409891    -0.6401217
H           4.5999482     0.0253347    -2.1047298
O           5.7722855    -0.8546105    -0.5825231
C           3.6345594    -0.8412868    -0.2945342
H           3.2832083    -0.3840943     0.6316796
C           4.8197194    -1.8134040    -0.0760250
H           4.7644824    -2.7081853    -0.7067293
H           5.0320217    -2.0941874     0.9626130
17
164_C5H9NO2_4-0-2-12 (-15,) energy =    -401.1094267
N           1.2340174    -1.1294982    -0.8203074
H           0.5717871    -1.5173374    -1.4811582
C           2.5337006    -1.3372825    -1.2031237
O           2.8003979    -1.8494227    -2.2854904
C           0.7336671    -0.7749792     0.5007083
H          -0.3562863    -0.7217373     0.4480571
H           0.9998793    -1.5122700     1.2694180
H           1.0953234     0.2085759     0.8185658
C           4.7314655     0.0161385    -0.9358572
H           4.8542778     1.0255232    -0.5252925
H           4.6486673     0.0589881    -2.0280132
O           5.7824606    -0.8748556    -0.5085705
C           3.6382408    -0.8633857    -0.2750616
H           3.2709582    -0.4439214     0.6629357
C           4.8145569    -1.8510325    -0.0702009
H           4.7716799    -2.7160828    -0.7420886
H           4.9989368    -2.1797848     0.9596923
17
164_C5H9NO2_4-0-2-12 (0,) energy =    -401.1096648
N           1.4565538    -1.5873977     0.1958490
H           1.0284603    -2.3480421     0.7079833
C           2.7911600    -1.7809251    -0.0350717
O           3.3620128    -2.7937979     0.3574484
C           0.6225322    -0.4577464    -0.1854917
H           0.9622230     0.4813518     0.2676754
H           0.5754554    -0.3251779    -1.2730228
H          -0.3925727    -0.6498086     0.1695615
C           4.5145644    -1.2043739    -1.8900801
H           4.3152442    -0.8484298    -2.9079719
H           4.6405108    -2.2930659    -1.8861737
O           5.6403492    -0.5285320    -1.2907290
C           3.5506800    -0.7015472    -0.7863524
H           2.9202983     0.1240385    -1.1210036
C           4.8630411    -0.2174364    -0.1163692
H           5.1582831    -0.8287996     0.7445181
H           4.9127100     0.8473853     0.1413221
17
164_C5H9NO2_4-0-2-12 (15,) energy =    -401.1094267
N           1.4524533    -1.5450826     0.3255235
H           1.0010596    -2.3328050     0.7743320
C           2.7705426    -1.7926379     0.0422287
O           3.3125547    -2.8302492     0.4089958
C           0.5942913    -0.5088918    -0.2321351
H           0.9483952     0.4932961     0.0313782
H           0.5029408    -0.5731419    -1.3243386
H          -0.4034960    -0.6269336     0.1969240
C           4.4751618    -1.2234062    -1.8339394
H           4.2711657    -0.8182411    -2.8324287
H           4.5499919    -2.3161869    -1.8765347
O           5.6439476    -0.6255111    -1.2352844
C           3.5594550    -0.7210131    -0.6892928
H           2.9591840     0.1434725    -0.9774335
C           4.9067487    -0.3214848    -0.0331442
H           5.1916731    -0.9752515     0.7992640
H           5.0098177     0.7304770     0.2588435
17
164_C5H9NO2_4-0-2-12 (30,) energy =    -401.1085268
N           1.4548341    -1.4854435     0.4022734
H           1.0063449    -2.2917143     0.8246259
C           2.7440610    -1.7914660     0.0283485
O           3.2490125    -2.8663073     0.3325051
C           0.5582563    -0.5409480    -0.2562599
H           0.9586430     0.4759504    -0.2171912
H           0.3543940    -0.7982479    -1.3048228
H          -0.3907625    -0.5376096     0.2855518
C           4.4864649    -1.1972322    -1.8081806
H           4.3115890    -0.7461869    -2.7923843
H           4.5326355    -2.2889708    -1.8944809
O           5.6610594    -0.6568589    -1.1666731
C           3.5650519    -0.7163782    -0.6605134
H           2.9881388     0.1719189    -0.9221316
C           4.9111909    -0.3711625     0.0312430
H           5.1670339    -1.0546062     0.8491462
H           5.0323872     0.6691591     0.3562113
17
164_C5H9NO2_4-0-2-12 (45,) energy =    -401.1068035
N           1.4836533    -1.3865826     0.4724430
H           1.0684208    -2.1860844     0.9443378
C           2.7524942    -1.7345835     0.0416529
O           3.2383629    -2.8211280     0.3302246
C           0.5187664    -0.6178681    -0.3127734
H           0.9525036     0.3318727    -0.6342263
H           0.1638838    -1.1573518    -1.2021282
H          -0.3426297    -0.3875896     0.3200757
C           4.4234875    -1.1212286    -1.8627842
H           4.2193942    -0.6043073    -2.8082845
H           4.4103915    -2.2068922    -2.0166953
O           5.6559619    -0.6780288    -1.2583075
C           3.5896545    -0.6674633    -0.6390703
H           3.0462381     0.2625815    -0.8129098
C           4.9863371    -0.4292045    -0.0050878
H           5.2497733    -1.1718693     0.7563353
H           5.1763015     0.5833157     0.3703379
17
164_C5H9NO2_4-0-2-12 (60,) energy =    -401.1039396
N           1.5663920    -1.3244941     0.5125130
H           1.1998894    -2.1221586     1.0297321
C           2.7635746    -1.7281725    -0.0757338
O           3.2067598    -2.8545084     0.0991462
C           0.5061270    -0.6622093    -0.2551789
H           0.8989206     0.2241304    -0.7598987
H           0.0545978    -1.3201221    -1.0105877
H          -0.2758201    -0.3312534     0.4338161
C           4.5147824    -1.0662680    -1.8953715
H           4.3573689    -0.5350630    -2.8417240
H           4.5247899    -2.1489465    -2.0668546
O           5.7081021    -0.6175363    -1.2162817
C           3.6117007    -0.6450585    -0.7145657
H           3.0573321     0.2775416    -0.8967336
C           4.9690569    -0.3882024    -0.0008741
H           5.2064570    -1.1291325     0.7716055
H           5.1186488     0.6248315     0.3910093
17
164_C5H9NO2_4-0-2-12 (75,) energy =    -401.0996777
N           1.6036402    -1.2430457     0.5430520
H           1.2888398    -2.0320316     1.1086579
C           2.7102649    -1.7069521    -0.1896688
O           3.0684443    -2.8726337    -0.1382049
C           0.4470316    -0.6921371    -0.1825874
H           0.7636650     0.1396327    -0.8187967
H          -0.0527356    -1.4400491    -0.8133492
H          -0.2735445    -0.3013653     0.5411023
C           4.5795724    -1.0423941    -1.8898956
H           4.5073280    -0.4855313    -2.8317878
H           4.5830446    -2.1202680    -2.0871945
O           5.7257676    -0.6328798    -1.1086477
C           3.5975003    -0.6274688    -0.7761137
H           3.0478380     0.2937683    -0.9827610
C           4.8983128    -0.3719587     0.0398558
H           5.0713752    -1.0942281     0.8471367
H           5.0241008     0.6481881     0.4217614
17
164_C5H9NO2_4-0-2-12 (90,) energy =    -401.0942558
N           1.6606446    -1.1301113     0.5477506
H           1.4178950    -1.9033913     1.1705503
C           2.6762124    -1.6569316    -0.2957951
O           2.9085014    -2.8511776    -0.3564039
C           0.4118051    -0.7242388    -0.1300014
H           0.6222733     0.0698503    -0.8539314
H          -0.0740646    -1.5559189    -0.6586280
H          -0.2798429    -0.3217402     0.6148956
C           4.6538140    -1.0609778    -1.9006104
H           4.6559983    -0.4969884    -2.8407968
H           4.6310024    -2.1370046    -2.1054032
O           5.7680040    -0.6947470    -1.0511400
C           3.6282678    -0.6162187    -0.8421480
H           3.1125606     0.3202888    -1.0708213
C           4.8875961    -0.3951937     0.0469840
H           4.9938440    -1.1128735     0.8705036
H           5.0235339     0.6236212     0.4284759
17
164_C5H9NO2_4-0-2-12 (105,) energy =    -401.0932411
N           1.3959845    -1.1022628     0.4208448
H           1.3483925    -0.0890466     0.5053584
C           2.7393386    -1.5164524     0.3355785
O           3.0421985    -2.6950110     0.3864738
C           0.5017544    -1.5318106    -0.6666543
H           0.5805263    -2.6153584    -0.7763203
H          -0.5305673    -1.2870650    -0.4017114
H           0.7429064    -1.0583442    -1.6296571
C           4.0648278    -0.4427476    -1.6029989
H           3.8478072     0.4974659    -2.1252349
H           3.6307740    -1.2818400    -2.1625097
O           5.4692308    -0.6234991    -1.3617079
C           3.7515117    -0.4581084    -0.0759787
H           3.4963021     0.5347190     0.3093284
C           5.2445493    -0.8096297     0.0579383
H           5.4159012    -1.8459052     0.3679976
H           5.8537741    -0.1257068     0.6597940
17
164_C5H9NO2_4-0-2-12 (120,) energy =    -401.1003869
N           1.4314410    -1.0491067     0.3233656
H           1.3772816    -0.0348565     0.3317719
C           2.7469427    -1.5024268     0.2276312
O           3.0191671    -2.6922927     0.2220439
C           0.4283080    -1.6182169    -0.5837151
H           0.5557495    -2.7018464    -0.6013808
H          -0.5754799    -1.3917084    -0.2132883
H           0.5272090    -1.2304945    -1.6074271
C           4.1753848    -0.3933035    -1.6127477
H           4.0034083     0.5677033    -2.1136615
H           3.7477804    -1.2042445    -2.2168497
O           5.5638615    -0.6142240    -1.3158105
C           3.7926671    -0.4492896    -0.1038580
H           3.5385423     0.5346259     0.3043772
C           5.2710339    -0.8365974     0.0857277
H           5.4071206    -1.8849293     0.3717772
H           5.8656697    -0.1834675     0.7346815
17
164_C5H9NO2_4-0-2-12 (135,) energy =    -401.1067030
N           1.3952741    -0.9763271     0.2107715
H           1.3415179     0.0357790     0.1832177
C           2.6812834    -1.4726076     0.0853085
O           2.9173808    -2.6703800     0.0161801
C           0.2945708    -1.6286229    -0.4983285
H           0.4564632    -2.7065141    -0.4569151
H          -0.6565837    -1.3951483    -0.0113230
H           0.2445125    -1.3161086    -1.5504013
C           4.2684638    -0.3529257    -1.6179193
H           4.1543895     0.6217715    -2.1088319
H           3.8733506    -1.1426435    -2.2699584
O           5.6262426    -0.6082384    -1.2205223
C           3.7674041    -0.4345236    -0.1466147
H           3.5051064     0.5442586     0.2683409
C           5.2188985    -0.8617925     0.1458380
H           5.3092568    -1.9206502     0.4107552
H           5.7737858    -0.2410938     0.8588427
17
164_C5H9NO2_4-0-2-12 (150,) energy =    -401.1113953
N           1.4118530    -0.9196823     0.0949292
H           1.3310144     0.0892087     0.0912335
C           2.6797619    -1.4197319    -0.0927653
O           2.9069312    -2.6134867    -0.2436275
C           0.2434446    -1.6421165    -0.3944399
H           0.4695755    -2.7082447    -0.3544551
H          -0.6237979    -1.4358315     0.2399204
H           0.0017547    -1.3691882    -1.4304828
C           4.4279923    -0.2834069    -1.6288495
H           4.3544118     0.6918336    -2.1259924
H           4.1081430    -1.0760187    -2.3170549
O           5.7430911    -0.5264617    -1.0980957
C           3.7811288    -0.3801667    -0.2182887
H           3.4847456     0.5945602     0.1823650
C           5.1982292    -0.8148084     0.2107916
H           5.2629940    -1.8805156     0.4560264
H           5.6747770    -0.2135491     0.9938125
17
164_C5H9NO2_4-0-2-12 (165,) energy =    -401.1140898
N           1.3918178    -0.9086340    -0.0235635
H           1.2981675     0.0927996     0.0733470
C           2.6397171    -1.4031839    -0.2959315
O           2.8520004    -2.5839792    -0.5482425
C           0.1855860    -1.6781919    -0.2828552
H           0.4765073    -2.7265751    -0.3587086
H          -0.5311684    -1.5600167     0.5363011
H          -0.2944979    -1.3738388    -1.2220764
C           4.5747255    -0.2944484    -1.6282223
H           4.5613311     0.6722357    -2.1463846
H           4.3426555    -1.1011325    -2.3342838
O           5.8175462    -0.5231887    -0.9360915
C           3.7600133    -0.3768887    -0.3100343
H           3.4366197     0.6045541     0.0511771
C           5.1126056    -0.8266686     0.2885303
H           5.1413714    -1.8968512     0.5227521
H           5.4894823    -0.2416248     1.1356279
17
164_C5H9NO2_4-0-2-12 (180,) energy =    -401.1149247
N           1.3976898    -0.9180147    -0.0379567
H           1.3493775    -0.0121666     0.4050812
C           2.6077250    -1.3603843    -0.4933526
O           2.7655259    -2.4521439    -1.0298988
C           0.1834574    -1.7080658    -0.1413706
H          -0.2012328    -1.9817286     0.8486144
H          -0.5958459    -1.1617328    -0.6850056
H           0.4344328    -2.6173315    -0.6891383
C           4.6505178    -0.1433964    -1.5492146
H           4.7037886     0.8932583    -1.9028203
H           4.4201581    -0.8156572    -2.3841457
O           5.8485896    -0.5413570    -0.8505772
C           3.7687253    -0.3994747    -0.3011488
H           3.4730860     0.5238659     0.2071030
C           5.0710002    -1.0118914     0.2705331
H           5.0448113    -2.1067256     0.3205765
H           5.4268762    -0.5981787     1.2216585
