18
401_C7H9NO_5-6-9-10 (-165,) energy =    -402.1178667
N           0.7161137     0.5115628    -0.9495984
C          -0.4518037     1.0801821    -0.6339858
H          -0.7428641     1.9379529    -1.2389330
C          -1.2780107     0.6313203     0.3977884
H          -2.2187253     1.1319573     0.6068261
C           1.1108091    -0.5474156    -0.2256642
C           2.4492199    -1.1264477    -0.6299232
H           3.2276051    -0.3642328    -0.4527735
H           2.4479925    -1.3279167    -1.7137579
O           2.7235600    -2.2992729     0.1076019
C           4.0758820    -2.6958448     0.0296575
H           4.1833457    -3.5941534     0.6431288
H           4.7504429    -1.9142803     0.4143743
H           4.3747952    -2.9328015    -1.0039385
C          -0.8584757    -0.4707341     1.1407895
H          -1.4695873    -0.8563772     1.9529164
C           0.3590178    -1.0740321     0.8278919
H           0.7304879    -1.9325258     1.3744908
18
401_C7H9NO_5-6-9-10 (-150,) energy =    -402.1167846
N           0.7019098     0.4961406    -0.9792470
C          -0.4357866     1.0922191    -0.6090404
H          -0.7253695     1.9676366    -1.1889499
C          -1.2336834     0.6498281     0.4476209
H          -2.1506085     1.1735246     0.7011320
C           1.0942114    -0.5848333    -0.2870306
C           2.4010253    -1.1928043    -0.7531935
H           3.1995505    -0.4495850    -0.5946471
H           2.3532874    -1.3766173    -1.8380546
O           2.6809451    -2.3868525    -0.0483435
C           4.0607865    -2.6471373     0.1019321
H           4.1508469    -3.5724158     0.6772444
H           4.5702661    -1.8354748     0.6449113
H           4.5634037    -2.7844159    -0.8684644
C          -0.8176663    -0.4759698     1.1562488
H          -1.4079442    -0.8579693     1.9853536
C           0.3690098    -1.1080037     0.7865329
H           0.7368808    -1.9863324     1.3032011
18
401_C7H9NO_5-6-9-10 (-135,) energy =    -402.1156928
N           0.7222437     0.4851930    -0.9736477
C          -0.3881506     1.0940766    -0.5458421
H          -0.6799897     1.9908890    -1.0909306
C          -1.1560348     0.6398972     0.5280487
H          -2.0514679     1.1750145     0.8299535
C           1.1165373    -0.6224406    -0.3258156
C           2.3896573    -1.2497953    -0.8602018
H           3.2031328    -0.5163429    -0.7537228
H           2.2752616    -1.4383181    -1.9380651
O           2.6982383    -2.4544368    -0.1812005
C           4.0552347    -2.5817621     0.1919552
H           4.1466511    -3.5225348     0.7416313
H           4.3799871    -1.7551981     0.8429471
H           4.7228431    -2.6193218    -0.6828408
C          -0.7388472    -0.5135182     1.1898380
H          -1.3072453    -0.9055124     2.0295125
C           0.4190774    -1.1599881     0.7586677
H           0.7856453    -2.0611825     1.2355628
18
401_C7H9NO_5-6-9-10 (-120,) energy =    -402.1153502
N           0.7506534     0.4820139    -0.9839402
C          -0.3271674     1.1160341    -0.5114013
H          -0.5960784     2.0415098    -1.0191318
C          -1.0879601     0.6546009     0.5645096
H          -1.9543810     1.2133751     0.9056115
C           1.1154891    -0.6620302    -0.3838147
C           2.3422034    -1.3303578    -0.9782816
H           3.1667651    -0.6042196    -0.9884847
H           2.1334196    -1.5834287    -2.0276328
O           2.6990225    -2.5136910    -0.2829373
C           3.9957106    -2.4923110     0.2812958
H           4.1297340    -3.4433179     0.8040389
H           4.1184719    -1.6703190     1.0033607
H           4.7766033    -2.4006439    -0.4889785
C          -0.7012479    -0.5358208     1.1776038
H          -1.2649532    -0.9350574     2.0170615
C           0.4205239    -1.2104204     0.6968478
H           0.7612506    -2.1421866     1.1328483
18
401_C7H9NO_5-6-9-10 (-105,) energy =    -402.1160574
N           0.7834086     0.4527702    -0.9781751
C          -0.2606994     1.1059955    -0.4576038
H          -0.5057360     2.0598579    -0.9230975
C          -1.0136309     0.6315696     0.6179563
H          -1.8499338     1.2086765     1.0010930
C           1.1173088    -0.7271623    -0.4320510
C           2.2924956    -1.4315108    -1.0888625
H           3.1080332    -0.7101262    -1.2340967
H           1.9841156    -1.7653812    -2.0891618
O           2.7227019    -2.5772035    -0.3731499
C           3.9271884    -2.3878695     0.3457367
H           4.1445535    -3.3305385     0.8552338
H           3.8400425    -1.5897424     1.0989881
H           4.7653042    -2.1456469    -0.3251684
C          -0.6579704    -0.5949489     1.1768181
H          -1.2166526    -1.0048918     2.0144549
C           0.4255974    -1.2913253     0.6431313
H           0.7399848    -2.2518478     1.0351775
18
401_C7H9NO_5-6-9-10 (-90,) energy =    -402.1172416
N           0.8562297     0.4512623    -0.9632003
C          -0.1502879     1.1273391    -0.3978682
H          -0.3523539     2.1143498    -0.8119247
C          -0.9136730     0.6374568     0.6627547
H          -1.7155626     1.2350113     1.0860334
C           1.1357935    -0.7701966    -0.4826117
C           2.2567602    -1.5122074    -1.1928288
H           3.0453434    -0.7965630    -1.4652418
H           1.8644233    -1.9300403    -2.1293542
O           2.7692027    -2.6065120    -0.4539533
C           3.8458209    -2.2560385     0.3971274
H           4.1624501    -3.1719421     0.9030787
H           3.5514195    -1.5141919     1.1549064
H           4.6943389    -1.8522583    -0.1760123
C          -0.6129474    -0.6315548     1.1562977
H          -1.1815071    -1.0541462     1.9808656
C           0.4276330    -1.3524048     0.5733127
H           0.6982470    -2.3456124     0.9145975
18
401_C7H9NO_5-6-9-10 (-75,) energy =    -402.1177485
N           0.9460654     0.4361210    -0.9349095
C          -0.0207267     1.1415997    -0.3350327
H          -0.1656249     2.1571296    -0.7010582
C          -0.8098432     0.6470252     0.7035192
H          -1.5752773     1.2693959     1.1574109
C           1.1540310    -0.8209557    -0.5153891
C           2.2224919    -1.6044296    -1.2619666
H           2.9593884    -0.8933092    -1.6640490
H           1.7643981    -2.1212178    -2.1146310
O           2.8404858    -2.6186480    -0.4910787
C           3.7621231    -2.1154079     0.4605435
H           4.1938973    -2.9802928     0.9708476
H           3.2786033    -1.4657255     1.2043764
H           4.5689928    -1.5467307    -0.0273092
C          -0.5823791    -0.6593606     1.1370617
H          -1.1727095    -1.0867220     1.9436255
C           0.4133007    -1.4096069     0.5161142
H           0.6279573    -2.4311353     0.8128121
18
401_C7H9NO_5-6-9-10 (-60,) energy =    -402.1165814
N           1.0376482     0.4028379    -0.8973300
C           0.1146655     1.1371437    -0.2620147
H           0.0387986     2.1778431    -0.5738184
C          -0.7109298     0.6406557     0.7459432
H          -1.4373842     1.2865468     1.2300515
C           1.1606561    -0.8855777    -0.5469340
C           2.1827892    -1.7027946    -1.3207444
H           2.8351580    -0.9967215    -1.8569494
H           1.6775506    -2.3287192    -2.0656623
O           2.9423335    -2.6060935    -0.5337438
C           3.7005161    -1.9829576     0.4884387
H           4.2902291    -2.7714078     0.9633921
H           3.0666880    -1.5037086     1.2467942
H           4.3840376    -1.2237343     0.0763682
C          -0.5718185    -0.6994374     1.1107071
H          -1.1934201    -1.1295252     1.8918405
C           0.3760095    -1.4771688     0.4519293
H           0.5229403    -2.5246054     0.6980571
18
401_C7H9NO_5-6-9-10 (-45,) energy =    -402.1138488
N           1.1146383     0.3939302    -0.8529249
C           0.2359958     1.1547894    -0.1864027
H           0.2397061     2.2144271    -0.4374777
C          -0.6409574     0.6617760     0.7788970
H          -1.3290217     1.3287473     1.2897971
C           1.1397613    -0.9188663    -0.5795834
C           2.1263346    -1.7619345    -1.3691769
H           2.6651895    -1.0765314    -2.0404004
H           1.5956090    -2.4984490    -1.9829817
O           3.0450547    -2.5231238    -0.5928877
C           3.6474780    -1.8298509     0.4854346
H           4.3868531    -2.5128389     0.9123337
H           2.9252574    -1.5542524     1.2651241
H           4.1605044    -0.9148464     0.1493574
C          -0.6053110    -0.7039263     1.0650458
H          -1.2708462    -1.1323147     1.8099488
C           0.2960227    -1.5074033     0.3730847
H           0.3604078    -2.5755608     0.5612218
18
401_C7H9NO_5-6-9-10 (-30,) energy =    -402.1107184
N           1.2515433     0.3146467    -0.7439246
C           0.4112798     1.1103288    -0.0709524
H           0.5284262     2.1791330    -0.2437237
C          -0.5672226     0.6407286     0.8054442
H          -1.2212863     1.3363210     1.3227621
C           1.1391348    -1.0116963    -0.5667484
C           2.1097904    -1.8861555    -1.3378525
H           2.4991885    -1.2758537    -2.1648512
H           1.5906434    -2.7538286    -1.7594653
O           3.2022467    -2.4261057    -0.5899619
C           3.6678048    -1.6584101     0.5047448
H           4.5403532    -2.1909731     0.8932915
H           2.9217300    -1.5711496     1.3064857
H           3.9736917    -0.6446521     0.2054539
C          -0.6788516    -0.7372457     0.9909034
H          -1.4278259    -1.1490613     1.6622169
C           0.1866296    -1.5759676     0.2931322
H           0.1334589    -2.6552392     0.4070601
18
401_C7H9NO_5-6-9-10 (-15,) energy =    -402.1083473
N           1.3236026     0.2797596    -0.6919686
C           0.4997742     1.0934243    -0.0227423
H           0.6704805     2.1607158    -0.1561375
C          -0.5321903     0.6440161     0.8031269
H          -1.1721961     1.3544805     1.3177368
C           1.1461829    -1.0462137    -0.5589806
C           2.1008339    -1.9369249    -1.3290174
H           2.3655156    -1.4047021    -2.2523067
H           1.5984225    -2.8724285    -1.6022180
O           3.3114654    -2.3158665    -0.6632801
C           3.6862045    -1.5974597     0.4971891
H           4.6436596    -2.0236814     0.8100203
H           2.9651027    -1.7151016     1.3190729
H           3.8197093    -0.5237930     0.3046888
C          -0.7145828    -0.7309708     0.9399463
H          -1.5064903    -1.1275839     1.5698309
C           0.1383544    -1.5893045     0.2484395
H           0.0289709    -2.6672735     0.3275419
18
401_C7H9NO_5-6-9-10 (0,) energy =    -402.1073419
N           1.1303352    -0.0522701    -1.0111369
C          -0.1967364     0.0369824    -1.1415656
H          -0.5612446     0.2887752    -2.1364895
C          -1.0958096    -0.1650323    -0.0919150
H          -2.1648023    -0.0715944    -0.2583835
C           1.6266651    -0.3604650     0.2008305
C           3.1354832    -0.4461755     0.3133637
H           3.4239836    -0.3199636     1.3657743
H           3.5601697     0.3882592    -0.2580446
O           3.7622220    -1.6453371    -0.1560444
C           2.9470238    -2.6703349    -0.6920743
H           3.6340657    -3.4740315    -0.9720152
H           2.3946209    -2.3465423    -1.5837499
H           2.2268298    -3.0670120     0.0398458
C          -0.5803310    -0.4824574     1.1626625
H          -1.2399941    -0.6468824     2.0105629
C           0.8025324    -0.5841922     1.3105360
H           1.2424860    -0.8312819     2.2724766
18
401_C7H9NO_5-6-9-10 (15,) energy =    -402.1083503
N           1.1171543    -0.0131727    -1.0002577
C          -0.2119712     0.0709025    -1.1214597
H          -0.5834679     0.3481457    -2.1069362
C          -1.1034894    -0.1685459    -0.0741275
H          -2.1740390    -0.0797773    -0.2330482
C           1.6210469    -0.3490898     0.2000892
C           3.1308384    -0.4396561     0.2994580
H           3.4514631    -0.1901660     1.3179619
H           3.5458724     0.3107078    -0.3863816
O           3.7249120    -1.7071736    -0.0055063
C           2.9335981    -2.6700152    -0.6763585
H           3.5885135    -3.5322021    -0.8311851
H           2.5740273    -2.3154349    -1.6524093
H           2.0652624    -2.9918010    -0.0833149
C          -0.5793835    -0.5168476     1.1694378
H          -1.2340533    -0.7101160     2.0151358
C           0.8043982    -0.6090835     1.3082579
H           1.2525678    -0.8771056     2.2609143
18
401_C7H9NO_5-6-9-10 (30,) energy =    -402.1107184
N           1.0910862     0.0832915    -0.9947047
C          -0.2413541     0.1692836    -1.0909066
H          -0.6270631     0.5129723    -2.0495627
C          -1.1162611    -0.1509244    -0.0526086
H          -2.1895575    -0.0598472    -0.1904716
C           1.6118439    -0.3300453     0.1719901
C           3.1241354    -0.4235051     0.2473674
H           3.4848863    -0.0223895     1.2008318
H           3.5218914     0.1987707    -0.5666270
O           3.6795177    -1.7378732     0.1560138
C           2.9557899    -2.6850900    -0.6078409
H           3.5704985    -3.5894467    -0.6222160
H           2.7908072    -2.3503355    -1.6430064
H           1.9805414    -2.9282789    -0.1642414
C          -0.5727283    -0.5841733     1.1567464
H          -1.2153360    -0.8426016     1.9942939
C           0.8123117    -0.6737173     1.2709464
H           1.2776098    -1.0053661     2.1951438
18
401_C7H9NO_5-6-9-10 (45,) energy =    -402.1138488
N           1.0240300     0.2632850    -0.9945225
C          -0.3110497     0.3659786    -1.0412980
H          -0.7200218     0.8305519    -1.9372880
C          -1.1592655    -0.0856058    -0.0310931
H          -2.2356675     0.0213970    -0.1270687
C           1.5710142    -0.2970156     0.0943544
C           3.0875347    -0.3759188     0.1329375
H           3.4811942     0.2204979     0.9637196
H           3.4531657     0.0597015    -0.8089925
O           3.6316224    -1.6773154     0.3237676
C           3.0433289    -2.7010163    -0.4587075
H           3.6299684    -3.6042462    -0.2705016
H           3.0828463    -2.4687918    -1.5347592
H           1.9974104    -2.8921826    -0.1848778
C          -0.5851862    -0.6749167     1.0964887
H          -1.2075601    -1.0410756     1.9088389
C           0.8010250    -0.7792175     1.1622709
H           1.2935030    -1.2300877     2.0194075
18
401_C7H9NO_5-6-9-10 (60,) energy =    -402.1165814
N           0.9954102     0.3419313    -0.9633397
C          -0.3364142     0.4867012    -0.9669421
H          -0.7518694     1.0377269    -1.8094386
C          -1.1742072    -0.0273787     0.0219521
H          -2.2489173     0.1163394    -0.0381770
C           1.5484714    -0.3263644     0.0591217
C           3.0652343    -0.4303424     0.0582965
H           3.4916059     0.2870763     0.7692595
H           3.4160361    -0.1591127    -0.9491816
O           3.5759635    -1.6924252     0.4564553
C           3.1554211    -2.7689636    -0.3634264
H           3.6744853    -3.6592846     0.0011238
H           3.4280668    -2.6022103    -1.4175998
H           2.0715828    -2.9386094    -0.3083299
C          -0.5920169    -0.7285701     1.0791368
H          -1.2059913    -1.1476631     1.8721879
C           0.7916165    -0.8778848     1.1014145
H           1.2930914    -1.4140838     1.9016050
18
401_C7H9NO_5-6-9-10 (75,) energy =    -402.1177485
N           0.9408884     0.4286595    -0.9429993
C          -0.3837593     0.6181225    -0.9023607
H          -0.7994020     1.2432522    -1.6914899
C          -1.2166046     0.0604868     0.0678504
H          -2.2867854     0.2434231     0.0455001
C           1.4926360    -0.3327012     0.0137626
C           3.0059058    -0.4747759    -0.0376895
H           3.4663331     0.3329083     0.5450705
H           3.3320585    -0.3559287    -1.0816621
O           3.4934149    -1.6771514     0.5292774
C           3.2796847    -2.8110676    -0.2934037
H           3.7179348    -3.6666158     0.2270185
H           3.7734170    -2.6939206    -1.2706128
H           2.2109114    -3.0052989    -0.4641786
C          -0.6346037    -0.7346754     1.0554407
H          -1.2444541    -1.1901880     1.8314971
C           0.7437779    -0.9330788     1.0325604
H           1.2462885    -1.5395362     1.7790990
18
401_C7H9NO_5-6-9-10 (90,) energy =    -402.1172416
N           0.8916986     0.5024094    -0.9077696
C          -0.4233737     0.7335603    -0.8246310
H          -0.8333929     1.4207127    -1.5636637
C          -1.2547520     0.1456300     0.1297330
H          -2.3178923     0.3664703     0.1447413
C           1.4359375    -0.3374001    -0.0135623
C           2.9404556    -0.5263423    -0.1243852
H           3.4386052     0.3398738     0.3307069
H           3.2238094    -0.5392146    -1.1863476
O           3.4205984    -1.6672273     0.5640051
C           3.4424174    -2.8377335    -0.2333130
H           3.8363438    -3.6421819     0.3934285
H           4.0971171    -2.7134261    -1.1093417
H           2.4382267    -3.1193767    -0.5847610
C          -0.6795124    -0.7275448     1.0522710
H          -1.2881588    -1.2079463     1.8141896
C           0.6906625    -0.9731299     0.9843589
H           1.1888302    -1.6382159     1.6812506
18
401_C7H9NO_5-6-9-10 (105,) energy =    -402.1160574
N           0.8529433     0.5530423    -0.8695058
C          -0.4488301     0.8347224    -0.7516001
H          -0.8398284     1.5781227    -1.4451830
C          -1.2900687     0.2329522     0.1859526
H          -2.3417542     0.4994843     0.2325012
C           1.3730513    -0.3583917    -0.0323931
C           2.8622467    -0.6099497    -0.1984891
H           3.4061885     0.2851966     0.1331833
H           3.0878003    -0.7392954    -1.2657216
O           3.3298937    -1.7016591     0.5757271
C           3.5922589    -2.8708273    -0.1776940
H           3.9348497    -3.6329292     0.5274953
H           4.3800492    -2.7011680    -0.9272442
H           2.6934175    -3.2431342    -0.6929227
C          -0.7389608    -0.7117440     1.0502427
H          -1.3553138    -1.2048499     1.7977518
C           0.6179417    -1.0139803     0.9437084
H           1.0982212    -1.7352962     1.5949977
18
401_C7H9NO_5-6-9-10 (120,) energy =    -402.1153502
N           0.8200428     0.5820849    -0.8754925
C          -0.4660114     0.9158378    -0.7283671
H          -0.8334947     1.6991819    -1.3901347
C          -1.3192511     0.3210892     0.2030652
H          -2.3567754     0.6331365     0.2767812
C           1.3105651    -0.3807331    -0.0789615
C           2.7785175    -0.7012019    -0.2964386
H           3.3715439     0.2019093    -0.0927660
H           2.9309017    -0.9443135    -1.3570795
O           3.2305565    -1.7472380     0.5477005
C           3.7269923    -2.8797930    -0.1386570
H           4.0132963    -3.6112249     0.6220494
H           4.6131674    -2.6363032    -0.7444003
H           2.9672095    -3.3304006    -0.7957733
C          -0.7978928    -0.6751885     1.0265639
H          -1.4240746    -1.1645180     1.7683830
C           0.5420387    -1.0352086     0.8867343
H           0.9992150    -1.7990658     1.5047081
18
401_C7H9NO_5-6-9-10 (135,) energy =    -402.1156928
N           0.7944401     0.5893130    -0.8608105
C          -0.4739372     0.9703886    -0.6798866
H          -0.8199243     1.7891334    -1.3095803
C          -1.3343480     0.3827743     0.2493983
H          -2.3558288     0.7361365     0.3543247
C           1.2577236    -0.4188523    -0.1051804
C           2.6998605    -0.8024886    -0.3754476
H           3.3355106     0.0905295    -0.2812110
H           2.7752895    -1.1332707    -1.4223142
O           3.1415315    -1.8152306     0.5115168
C           3.8622596    -2.8600344    -0.1096383
H           4.1008002    -3.5886618     0.6699479
H           4.8028478    -2.5039645    -0.5578436
H           3.2691413    -3.3570112    -0.8930203
C          -0.8404535    -0.6600433     1.0310488
H          -1.4735306    -1.1453208     1.7696345
C           0.4797741    -1.0724738     0.8535097
H           0.9143106    -1.8756700     1.4366096
18
401_C7H9NO_5-6-9-10 (150,) energy =    -402.1167846
N           0.7789101     0.6071744    -0.8589109
C          -0.4675898     1.0463583    -0.6587320
H          -0.7812632     1.8870384    -1.2762878
C          -1.3435335     0.4914208     0.2759604
H          -2.3453672     0.8926795     0.3967844
C           1.2018934    -0.4295651    -0.1187584
C           2.6167835    -0.8816959    -0.4160187
H           3.2964509    -0.0166263    -0.3640835
H           2.6481437    -1.2446907    -1.4564056
O           3.0199631    -1.8980101     0.4814621
C           3.9508865    -2.8056138    -0.0698368
H           4.1659297    -3.5506763     0.7007953
H           4.8924606    -2.3099335    -0.3542276
H           3.5445323    -3.3145408    -0.9581282
C          -0.8913055    -0.5821655     1.0411706
H          -1.5375635    -1.0449014     1.7827854
C           0.4049355    -1.0562052     0.8426693
H           0.8058585    -1.8868767     1.4109843
18
401_C7H9NO_5-6-9-10 (165,) energy =    -402.1178667
N           0.7631347     0.5793616    -0.8761123
C          -0.4573918     1.0721193    -0.6427127
H          -0.7486162     1.9296574    -1.2479109
C          -1.3339261     0.5506831     0.3104111
H          -2.3137117     0.9949801     0.4583929
C           1.1581943    -0.4790946    -0.1516131
C           2.5430781    -0.9911114    -0.4832500
H           3.2610458    -0.1555264    -0.4431288
H           2.5411342    -1.3540941    -1.5255918
O           2.9131315    -2.0259316     0.4038420
C           4.0268721    -2.7665248    -0.0469609
H           4.2173358    -3.5451588     0.6962124
H           4.9263614    -2.1374712    -0.1419811
H           3.8311050    -3.2399308    -1.0223810
C          -0.9113179    -0.5469431     1.0582100
H          -1.5593576    -0.9858349     1.8126280
C           0.3574036    -1.0763716     0.8253671
H           0.7333157    -1.9284616     1.3789051
18
401_C7H9NO_5-6-9-10 (180,) energy =    -402.1182960
N           0.7379460     0.5284821    -0.8958216
C          -0.4569811     1.0622203    -0.6237609
H          -0.7445578     1.9196917    -1.2307855
C          -1.3128779     0.5804104     0.3682261
H          -2.2734026     1.0553643     0.5445322
C           1.1287054    -0.5300963    -0.1692310
C           2.4903544    -1.0784692    -0.5345502
H           3.2413668    -0.2774159    -0.4245892
H           2.4887900    -1.3624703    -1.6009344
O           2.8099410    -2.1847965     0.2814610
C           4.0739874    -2.7353537    -0.0194006
H           4.2288768    -3.5774449     0.6599872
H           4.8828249    -2.0018264     0.1282608
H           4.1225025    -3.0990170    -1.0583841
C          -0.8958262    -0.5193220     1.1159714
H          -1.5287484    -0.9292055     1.8989924
C           0.3478863    -1.0890047     0.8458656
H           0.7180168    -1.9444073     1.3981869
