26
378_C13H12O_0-3-10-8 (-165,) energy =    -577.8229168
C           1.5162486    -1.5835468     0.1958807
H           2.1357250    -2.4908741     0.2768293
H           1.3893617    -1.1821408     1.2111202
O           2.1759874    -0.6272039    -0.6286645
C           5.7379854     1.1802286     0.5634745
H           6.6633165     1.6691594     0.8537896
C           4.9685327     1.6880599    -0.4890808
H           5.2926968     2.5789362    -1.0206860
C           3.7807091     1.0673823    -0.8595446
H           3.1677457     1.4517222    -1.6689359
C           3.3508719    -0.0841246    -0.1842020
C           4.1098831    -0.5953610     0.8749679
H           3.7906912    -1.4799912     1.4143418
C           5.3003688     0.0428583     1.2380144
H           5.8854645    -0.3617805     2.0598972
C          -2.2976743    -2.6708168    -1.5088825
H          -3.2557937    -2.9567827    -1.9345586
C          -1.2343623    -2.3210847    -2.3438362
H          -1.3631807    -2.3338006    -3.4230246
C          -0.0031400    -1.9544127    -1.8001453
H           0.8214173    -1.6750800    -2.4479873
C           0.1760027    -1.9253433    -0.4122484
C          -0.8955519    -2.2688569     0.4191128
H          -0.7702687    -2.2390641     1.4995707
C          -2.1248451    -2.6446471    -0.1243589
H          -2.9486458    -2.9067295     0.5342915
26
378_C13H12O_0-3-10-8 (-150,) energy =    -577.8216486
C           1.5376916    -1.6239128     0.1834967
H           2.0990572    -2.5568832     0.3494557
H           1.4220465    -1.1332570     1.1595513
O           2.2651441    -0.7757842    -0.7047400
C           5.6778393     1.2286930     0.6055590
H           6.5640147     1.7672302     0.9286039
C           4.8498111     1.7629323    -0.3865942
H           5.0868969     2.7235027    -0.8365722
C           3.7084716     1.0800473    -0.7967101
H           3.0479608     1.4841859    -1.5575015
C           3.3941076    -0.1611441    -0.2281733
C           4.2125026    -0.6993946     0.7716452
H           3.9754643    -1.6557726     1.2254055
C           5.3508539     0.0012148     1.1798444
H           5.9843721    -0.4238207     1.9541549
C          -2.3064742    -2.6288803    -1.5048110
H          -3.2729191    -2.8934377    -1.9255064
C          -1.2096421    -2.4166483    -2.3428330
H          -1.3206796    -2.5154046    -3.4195645
C           0.0320988    -2.0777072    -1.8052880
H           0.8827293    -1.9042776    -2.4564991
C           0.1892775    -1.9388968    -0.4212140
C          -0.9152332    -2.1448931     0.4123994
H          -0.8067154    -2.0290385     1.4888541
C          -2.1558176    -2.4928871    -0.1242006
H          -3.0051747    -2.6473173     0.5360442
26
378_C13H12O_0-3-10-8 (-135,) energy =    -577.8202377
C           1.4734237    -1.5008725     0.2423532
H           2.0085827    -2.4079207     0.5626275
H           1.3048126    -0.8875250     1.1380623
O           2.2640113    -0.7741801    -0.7014774
C           5.7070597     1.1932754     0.5947629
H           6.6024312     1.7178419     0.9158079
C           4.7861521     1.8198270    -0.2486535
H           4.9608878     2.8384761    -0.5849947
C           3.6318751     1.1519911    -0.6539480
H           2.8993969     1.6241810    -1.3011977
C           3.4022951    -0.1615393    -0.2311730
C           4.3180869    -0.7955519     0.6161864
H           4.1458551    -1.8150073     0.9462573
C           5.4651934    -0.1121637     1.0245669
H           6.1754233    -0.6096589     1.6799773
C          -2.2734220    -2.6996326    -1.5357137
H          -3.2156108    -3.0124520    -1.9778094
C          -1.1331621    -2.5690563    -2.3311799
H          -1.1858844    -2.7798605    -3.3961961
C           0.0777709    -2.1681036    -1.7662837
H           0.9624906    -2.0574467    -2.3848049
C           0.1598350    -1.8851365    -0.3979275
C          -0.9881306    -2.0097094     0.3923125
H          -0.9379786    -1.7817071     1.4551195
C          -2.1976553    -2.4193701    -0.1706403
H          -3.0813613    -2.5094030     0.4556172
26
378_C13H12O_0-3-10-8 (-120,) energy =    -577.8196610
C           1.2982512    -1.1250573     0.3064172
H           1.8676939    -1.8988373     0.8424826
H           0.9878713    -0.3784448     1.0520294
O           2.1291709    -0.5045415    -0.6789622
C           5.8247569     1.0125460     0.5276557
H           6.7890800     1.4149734     0.8247845
C           4.8446869     1.8524776    -0.0048151
H           5.0435541     2.9143620    -0.1234156
C           3.6035292     1.3378636    -0.3815517
H           2.8274352     1.9738354    -0.7962643
C           3.3457713    -0.0273961    -0.2360867
C           4.3258755    -0.8775156     0.2876438
H           4.1297604    -1.9421688     0.3757892
C           5.5599164    -0.3514402     0.6708851
H           6.3212015    -1.0141004     1.0741785
C          -2.1411675    -2.9689221    -1.5390034
H          -3.0056929    -3.4430141    -1.9960567
C          -0.9384306    -2.8735674    -2.2420126
H          -0.8645837    -3.2732162    -3.2501513
C           0.1729254    -2.2656775    -1.6573636
H           1.1057305    -2.1813626    -2.2053460
C           0.0912383    -1.7385249    -0.3634729
C          -1.1196810    -1.8282980     0.3320845
H          -1.1974682    -1.4104212     1.3337973
C          -2.2289079    -2.4447434    -0.2483879
H          -3.1630617    -2.5058199     0.3037940
26
378_C13H12O_0-3-10-8 (-105,) energy =    -577.8195139
C           1.2790008    -1.0377798     0.2644019
H           1.8200003    -1.7566956     0.8995309
H           0.9557407    -0.2127621     0.9164491
O           2.1605738    -0.5406186    -0.7478202
C           5.8133545     0.9913425     0.5636206
H           6.7676293     1.3953706     0.8897378
C           4.7848462     1.8519612     0.1745203
H           4.9360806     2.9280015     0.1970014
C           3.5568286     1.3371729    -0.2442655
H           2.7461508     1.9889085    -0.5558775
C           3.3637805    -0.0453889    -0.2821545
C           4.3908711    -0.9133163     0.1008149
H           4.2295703    -1.9863099     0.0474258
C           5.6131699    -0.3907228     0.5246688
H           6.4133988    -1.0656213     0.8169950
C          -2.1264034    -3.0164766    -1.5023914
H          -2.9828138    -3.5237026    -1.9387013
C          -0.8979240    -3.0139298    -2.1662392
H          -0.7958060    -3.5193318    -3.1231513
C           0.2030543    -2.3640040    -1.6077458
H           1.1563213    -2.3519791    -2.1260374
C           0.0853256    -1.7011738    -0.3807308
C          -1.1510943    -1.6986658     0.2745838
H          -1.2566005    -1.1757175     1.2230070
C          -2.2501807    -2.3571037    -0.2784526
H          -3.2043338    -2.3456478     0.2418920
26
378_C13H12O_0-3-10-8 (-90,) energy =    -577.8194287
C           1.2648431    -0.9868718     0.2368390
H           1.7589745    -1.6525225     0.9626257
H           0.9392954    -0.0934131     0.7900045
O           2.2054844    -0.6209364    -0.7783709
C           5.8053892     0.9900478     0.5830567
H           6.7469707     1.4120485     0.9230839
C           4.7132908     1.8252072     0.3365892
H           4.8033410     2.8984744     0.4823818
C           3.5025650     1.2883823    -0.1034599
H           2.6473501     1.9241705    -0.3131676
C           3.3890144    -0.0902106    -0.2994212
C           4.4776564    -0.9313074    -0.0562474
H           4.3692446    -1.9983703    -0.2278344
C           5.6852933    -0.3871609     0.3836288
H           6.5344012    -1.0404270     0.5666964
C          -2.1255631    -3.0365432    -1.4775255
H          -2.9788291    -3.5606069    -1.8998678
C          -0.8722003    -3.1296524    -2.0859691
H          -0.7473386    -3.7267874    -2.9856319
C           0.2248446    -2.4584166    -1.5451784
H           1.1979100    -2.5212153    -2.0211286
C           0.0786246    -1.6782901    -0.3924853
C          -1.1822666    -1.5809120     0.2067353
H          -1.3096192    -0.9672567     1.0963274
C          -2.2778678    -2.2600989    -0.3276692
H          -3.2511192    -2.1739847     0.1484327
26
378_C13H12O_0-3-10-8 (-75,) energy =    -577.8194884
C           1.2436918    -0.9541925     0.2371107
H           1.6774373    -1.5653779     1.0447542
H           0.9190474    -0.0061086     0.6894533
O           2.2482393    -0.7168090    -0.7547635
C           5.8126448     0.9964668     0.5752131
H           6.7464661     1.4424141     0.9058311
C           4.6566509     1.7761978     0.4894390
H           4.6896457     2.8311382     0.7489338
C           3.4558687     1.2104394     0.0599988
H           2.5564928     1.8127065    -0.0310963
C           3.4130196    -0.1451188    -0.2800271
C           4.5650812    -0.9300416    -0.1969362
H           4.5079602    -1.9779413    -0.4759862
C           5.7642140    -0.3548618     0.2269092
H           6.6614133    -0.9654425     0.2857672
C          -2.1260175    -3.0442172    -1.4698766
H          -2.9748527    -3.5773447    -1.8897879
C          -0.8463231    -3.2360927    -1.9945918
H          -0.6963940    -3.9194980    -2.8264695
C           0.2450922    -2.5534953    -1.4567412
H           1.2390345    -2.6937334    -1.8685590
C           0.0673994    -1.6631711    -0.3915997
C          -1.2191163    -1.4680883     0.1233328
H          -1.3704224    -0.7694243     0.9438023
C          -2.3098196    -2.1580579    -0.4073020
H          -3.3031110    -1.9951633     0.0027327
26
378_C13H12O_0-3-10-8 (-60,) energy =    -577.8197623
C           1.1645370    -0.8146837     0.2129479
H           1.5466484    -1.3210042     1.1131137
H           0.8002227     0.1734140     0.5267104
O           2.2301470    -0.6875001    -0.7331591
C           5.8473080     0.9492629     0.5512506
H           6.7970543     1.3712902     0.8673721
C           4.6703376     1.6886319     0.6859353
H           4.7026548     2.6921676     1.1021672
C           3.4476420     1.1548619     0.2769295
H           2.5366296     1.7399630     0.3598509
C           3.4021086    -0.1362295    -0.2600071
C           4.5766792    -0.8802918    -0.3992554
H           4.5165358    -1.8764467    -0.8269294
C           5.7957394    -0.3337906     0.0023557
H           6.7067578    -0.9157356    -0.1100824
C          -2.0822560    -3.1276715    -1.4459676
H          -2.9010751    -3.7155388    -1.8521731
C          -0.7698758    -3.3743129    -1.8540960
H          -0.5643056    -4.1557589    -2.5811441
C           0.2829537    -2.6215677    -1.3333095
H           1.3023607    -2.8053843    -1.6558606
C           0.0340922    -1.6057845    -0.4032859
C          -1.2844711    -1.3573669    -0.0058519
H          -1.4906930    -0.5621470     0.7078059
C          -2.3372465    -2.1165026    -0.5183366
H          -3.3560373    -1.9106383    -0.2006473
26
378_C13H12O_0-3-10-8 (-45,) energy =    -577.8207967
C           1.0653787    -0.6340062     0.1542755
H           1.4354541    -1.0320441     1.1109028
H           0.6438354     0.3611075     0.3535137
O           2.1596707    -0.5451055    -0.7642588
C           5.8770338     0.8261697     0.5386409
H           6.8541727     1.1782685     0.8566173
C           4.7196750     1.4724986     0.9737900
H           4.7930223     2.3368166     1.6287789
C           3.4598336     1.0288375     0.5660995
H           2.5655957     1.5489745     0.8947505
C           3.3584647    -0.0874766    -0.2718171
C           4.5159933    -0.7354280    -0.7168300
H           4.4120515    -1.5906409    -1.3775552
C           5.7680580    -0.2763685    -0.3130831
H           6.6622925    -0.7867548    -0.6611722
C          -2.0038305    -3.2427891    -1.3984726
H          -2.7776878    -3.9048424    -1.7777828
C          -0.6558159    -3.5665165    -1.5719138
H          -0.3785119    -4.4820389    -2.0879846
C           0.3384118    -2.7189915    -1.0852022
H           1.3862343    -2.9637979    -1.2282159
C          -0.0024973    -1.5322597    -0.4246957
C          -1.3538587    -1.2098459    -0.2636102
H          -1.6295950    -0.2840665     0.2370497
C          -2.3511157    -2.0619378    -0.7418209
H          -3.3968823    -1.7971641    -0.6098518
26
378_C13H12O_0-3-10-8 (-30,) energy =    -577.8222325
C           1.0486637    -0.5927225     0.1115848
H           1.3596001    -0.9099687     1.1184631
H           0.6474966     0.4270155     0.1971460
O           2.1860546    -0.6127216    -0.7532190
C           5.8816469     0.8295325     0.5286071
H           6.8548661     1.1976551     0.8400682
C           4.7181245     1.3500131     1.0928264
H           4.7803007     2.1323528     1.8449047
C           3.4608505     0.8853390     0.6968026
H           2.5647108     1.3114560     1.1352899
C           3.3715848    -0.1267456    -0.2660151
C           4.5374100    -0.6486963    -0.8415345
H           4.4422438    -1.4247211    -1.5948202
C           5.7824171    -0.1699212    -0.4444921
H           6.6811909    -0.5836951    -0.8943279
C          -2.0080402    -3.2625323    -1.3584529
H          -2.7795725    -3.9388514    -1.7167110
C          -0.6628021    -3.6340286    -1.4247773
H          -0.3853068    -4.6011822    -1.8358528
C           0.3284744    -2.7684139    -0.9646447
H           1.3747508    -3.0516783    -1.0241861
C          -0.0125742    -1.5160158    -0.4391102
C          -1.3604167    -1.1469585    -0.3847712
H          -1.6353591    -0.1712865     0.0104317
C          -2.3551833    -2.0163815    -0.8362609
H          -3.3982672    -1.7150208    -0.7886418
26
378_C13H12O_0-3-10-8 (-15,) energy =    -577.8232328
C           1.0663983    -0.6370672     0.1178593
H           1.3078640    -0.9105083     1.1566744
H           0.7194562     0.4059445     0.1240859
O           2.2395271    -0.7665421    -0.6833148
C           5.8742729     0.9026209     0.4905023
H           6.8333582     1.3262187     0.7738494
C           4.7096169     1.2933157     1.1470275
H           4.7554063     2.0287688     1.9461511
C           3.4684409     0.7560571     0.7901875
H           2.5742620     1.0828372     1.3089939
C           3.3991585    -0.1944755    -0.2350486
C           4.5681039    -0.5880834    -0.9025355
H           4.4874524    -1.3217197    -1.6987426
C           5.7937756    -0.0409983    -0.5395746
H           6.6933915    -0.3553103    -1.0623363
C          -2.0436336    -3.2385673    -1.3615226
H          -2.8294481    -3.8967585    -1.7224858
C          -0.7182738    -3.6795261    -1.3285925
H          -0.4706310    -4.6829456    -1.6649816
C           0.2910794    -2.8371912    -0.8645473
H           1.3224694    -3.1756264    -0.8468284
C          -0.0114429    -1.5391226    -0.4347942
C          -1.3387999    -1.1012574    -0.4791046
H          -1.5824667    -0.0905634    -0.1585407
C          -2.3522101    -1.9468904    -0.9344615
H          -3.3789797    -1.5920153    -0.9642703
26
378_C13H12O_0-3-10-8 (0,) energy =    -577.8235020
C           1.0828954    -0.6934955     0.1444860
H           1.2429240    -0.9251992     1.2091489
H           0.8008479     0.3666997     0.0770475
O           2.2905617    -0.9296398    -0.5751395
C           5.8532376     0.9847226     0.4339537
H           6.7947888     1.4691148     0.6755869
C           4.7074206     1.2608281     1.1754780
H           4.7509505     1.9652671     2.0021907
C           3.4880724     0.6443035     0.8742234
H           2.6101560     0.8794160     1.4648866
C           3.4214732    -0.2642949    -0.1885780
C           4.5725685    -0.5446161    -0.9401778
H           4.4940461    -1.2511100    -1.7607345
C           5.7762272     0.0765805    -0.6281356
H           6.6609854    -0.1491588    -1.2177528
C          -2.0739590    -3.2059367    -1.3882096
H          -2.8724866    -3.8407662    -1.7628382
C          -0.7777261    -3.7107719    -1.2583610
H          -0.5652929    -4.7407837    -1.5327268
C           0.2477314    -2.8983779    -0.7763901
H           1.2569935    -3.2874307    -0.6830972
C          -0.0088686    -1.5669518    -0.4259582
C          -1.3066654    -1.0656075    -0.5668456
H          -1.5139360    -0.0294315    -0.3080716
C          -2.3366314    -1.8808420    -1.0401525
H          -3.3399561    -1.4767181    -1.1454967
26
378_C13H12O_0-3-10-8 (15,) energy =    -577.8229656
C           1.0948828    -0.7413823     0.1888453
H           1.1654378    -0.9213640     1.2731622
H           0.8781700     0.3263264     0.0460687
O           2.3352821    -1.0775123    -0.4299419
C           5.8263426     1.0535871     0.3737807
H           6.7496822     1.5926953     0.5645148
C           4.7218093     1.2320307     1.2033816
H           4.7804127     1.9115575     2.0497964
C           3.5271562     0.5435089     0.9684631
H           2.6826116     0.6960516     1.6309297
C           3.4397058    -0.3309196    -0.1212161
C           4.5498129    -0.5163614    -0.9581614
H           4.4575688    -1.2024315    -1.7944359
C           5.7317458     0.1722078    -0.7089075
H           6.5845188     0.0223505    -1.3659507
C          -2.0789392    -3.1823543    -1.4225032
H          -2.8825376    -3.7984184    -1.8170765
C          -0.8153469    -3.7347751    -1.1990342
H          -0.6333510    -4.7832417    -1.4202511
C           0.2166426    -2.9466257    -0.6911477
H           1.2010038    -3.3732314    -0.5249072
C          -0.0003251    -1.5922630    -0.4085695
C          -1.2651372    -1.0435134    -0.6428622
H          -1.4411305     0.0101806    -0.4370142
C          -2.3019763    -1.8341018    -1.1421498
H          -3.2791429    -1.3931489    -1.3205071
26
378_C13H12O_0-3-10-8 (30,) energy =    -577.8217984
C           1.0965481    -0.7594465     0.2297603
H           1.0872232    -0.8824680     1.3240220
H           0.9363680     0.3060259     0.0168973
O           2.3612447    -1.1770355    -0.2884265
C           5.7996164     1.1010837     0.3171469
H           6.7090679     1.6776498     0.4592318
C           4.7656368     1.1755063     1.2490690
H           4.8680192     1.8087479     2.1266278
C           3.5918841     0.4364879     1.0769952
H           2.8019513     0.4989302     1.8178172
C           3.4486713    -0.3764888    -0.0536737
C           4.4866644    -0.4590755    -0.9910976
H           4.3539688    -1.1022789    -1.8554712
C           5.6533452     0.2758619    -0.8023071
H           6.4512563     0.2078258    -1.5372005
C          -2.0628647    -3.1673772    -1.4581288
H          -2.8630746    -3.7745222    -1.8729190
C          -0.8433558    -3.7544467    -1.1115445
H          -0.6924309    -4.8209493    -1.2569915
C           0.1840911    -2.9777533    -0.5776380
H           1.1350682    -3.4317930    -0.3164329
C           0.0073747    -1.6008706    -0.3916815
C          -1.2127271    -1.0181887    -0.7487356
H          -1.3564788     0.0522999    -0.6184050
C          -2.2458082    -1.7966825    -1.2744254
H          -3.1878995    -1.3293933    -1.5487201
26
378_C13H12O_0-3-10-8 (45,) energy =    -577.8204278
C           1.0491019    -0.6361153     0.0907548
H           0.9368250    -0.5554745     1.1831128
H           0.9564676     0.3777661    -0.3222186
O           2.3324633    -1.1757101    -0.2294840
C           5.7800398     1.1018345     0.3351888
H           6.6911261     1.6774199     0.4711939
C           4.7829852     1.1223224     1.3109734
H           4.9177993     1.7103912     2.2151277
C           3.6099716     0.3825731     1.1468047
H           2.8484682     0.3926391     1.9200367
C           3.4276283    -0.3725684    -0.0174094
C           4.4258896    -0.4006093    -0.9973970
H           4.2634166    -1.0015584    -1.8867297
C           5.5968457     0.3327509    -0.8170314
H           6.3668223     0.3073629    -1.5837084
C          -2.0899265    -3.1986506    -1.3997417
H          -2.8866316    -3.8415260    -1.7644067
C          -0.8413320    -3.7372410    -1.0833200
H          -0.6630433    -4.8029229    -1.2017271
C           0.1835126    -2.9142652    -0.6146858
H           1.1569245    -3.3299997    -0.3763638
C          -0.0282398    -1.5392873    -0.4643203
C          -1.2795267    -1.0038776    -0.7902739
H          -1.4516568     0.0656641    -0.6868504
C          -2.3069466    -1.8277949    -1.2511473
H          -3.2725156    -1.3969450    -1.5027393
26
378_C13H12O_0-3-10-8 (60,) energy =    -577.8197141
C           1.0528596    -0.4898047    -0.2760496
H           0.9826148    -0.1946219     0.7812817
H           0.9455507     0.4264735    -0.8746704
O           2.3265248    -1.0871926    -0.5344053
C           5.7807587     1.0124929     0.5024566
H           6.6913486     1.5448555     0.7622779
C           4.8337283     0.7189569     1.4859356
H           5.0093256     1.0165522     2.5164492
C           3.6638490     0.0312900     1.1609676
H           2.9410359    -0.2178711     1.9322500
C           3.4358307    -0.3558850    -0.1642235
C           4.3804424    -0.0666493    -1.1525312
H           4.1827355    -0.3852394    -2.1713872
C           5.5519740     0.6116005    -0.8154519
H           6.2849682     0.8312553    -1.5872900
C          -2.1354019    -3.2683846    -1.1411817
H          -2.9440030    -3.9642922    -1.3483749
C          -0.8994111    -3.7403978    -0.6945505
H          -0.7429323    -4.8068132    -0.5539115
C           0.1401308    -2.8491370    -0.4275067
H           1.1046392    -3.2143298    -0.0898662
C          -0.0430353    -1.4738380    -0.6117530
C          -1.2806121    -1.0079774    -1.0691300
H          -1.4294379     0.0582151    -1.2276994
C          -2.3240024    -1.8980601    -1.3272541
H          -3.2793423    -1.5213238    -1.6831664
26
378_C13H12O_0-3-10-8 (75,) energy =    -577.8195352
C           1.0957229    -0.4894482    -0.3998770
H           1.0076692    -0.0673779     0.6133584
H           1.0404171     0.3530742    -1.1050836
O           2.3580454    -1.1511521    -0.5322844
C           5.7472820     1.0340700     0.5391459
H           6.6396866     1.5897509     0.8131283
C           4.8895138     0.5526152     1.5312095
H           5.1158185     0.7286723     2.5795852
C           3.7453127    -0.1667626     1.1851632
H           3.0837989    -0.5639421     1.9499469
C           3.4565388    -0.3987628    -0.1632600
C           4.3100705     0.0788248    -1.1599800
H           4.0686322    -0.1252619    -2.1987637
C           5.4568696     0.7910350    -0.8048580
H           6.1234037     1.1572851    -1.5812725
C          -2.1584579    -3.2493668    -1.0527647
H          -2.9837788    -3.9393009    -1.2074145
C          -0.9536058    -3.7047505    -0.5134070
H          -0.8382717    -4.7524203    -0.2476597
C           0.1071368    -2.8208981    -0.3133980
H           1.0479760    -3.1739044     0.0961666
C          -0.0227807    -1.4708281    -0.6587116
C          -1.2291627    -1.0228706    -1.2083182
H          -1.3360539     0.0222497    -1.4918378
C          -2.2941657    -1.9041951    -1.3993903
H          -3.2247629    -1.5416669    -1.8281840
26
378_C13H12O_0-3-10-8 (90,) energy =    -577.8194341
C           1.1234208    -0.5050294    -0.4601045
H           0.9983741     0.0153257     0.5029497
H           1.1297837     0.2668100    -1.2440203
O           2.3700382    -1.2088148    -0.4541104
C           5.7323399     1.0532397     0.5395033
H           6.6168967     1.6298241     0.7954004
C           4.9895190     0.4251811     1.5419579
H           5.2971824     0.5104388     2.5808185
C           3.8545929    -0.3189896     1.2163450
H           3.2728318    -0.8247213     1.9817254
C           3.4650970    -0.4334282    -0.1205106
C           4.2042196     0.1893546    -1.1290432
H           3.8903674     0.0725560    -2.1622170
C           5.3384794     0.9308275    -0.7948879
H           5.9174613     1.4104033    -1.5797304
C          -2.1756027    -3.2301661    -1.0297901
H          -3.0124833    -3.9102880    -1.1645034
C          -1.0141272    -3.6637222    -0.3872017
H          -0.9441761    -4.6846596    -0.0206761
C           0.0612004    -2.7922208    -0.2124093
H           0.9686886    -3.1290923     0.2778752
C          -0.0098905    -1.4773702    -0.6866204
C          -1.1726860    -1.0520908    -1.3387906
H          -1.2336319    -0.0355198    -1.7222070
C          -2.2526456    -1.9200718    -1.5050519
H          -3.1487806    -1.5755251    -2.0144979
26
378_C13H12O_0-3-10-8 (105,) energy =    -577.8194696
C           1.1278059    -0.5027238    -0.4899858
H           0.9554150     0.1028946     0.4142305
H           1.1960843     0.1953928    -1.3368022
O           2.3549633    -1.2240444    -0.3381326
C           5.7387776     1.0562242     0.5324662
H           6.6284771     1.6365739     0.7602497
C           5.1113611     0.3129582     1.5343047
H           5.5113868     0.3130031     2.5448464
C           3.9675480    -0.4332453     1.2455511
H           3.4681245    -1.0212095     2.0098750
C           3.4573953    -0.4405800    -0.0543900
C           4.0830822     0.2966687    -1.0640364
H           3.6839574     0.2638112    -2.0737705
C           5.2223539     1.0447205    -0.7655994
H           5.7122288     1.6135654    -1.5515418
C          -2.1851581    -3.2170079    -1.0309748
H          -3.0257743    -3.8936705    -1.1596596
C          -1.0744458    -3.6109987    -0.2820581
H          -1.0476944    -4.5974946     0.1736372
C           0.0056470    -2.7439361    -0.1146542
H           0.8739648    -3.0508342     0.4589760
C          -0.0093297    -1.4739204    -0.7025230
C          -1.1212883    -1.0888336    -1.4599134
H          -1.1384892    -0.1080860    -1.9311146
C          -2.2064229    -1.9515433    -1.6194406
H          -3.0625326    -1.6385559    -2.2113998
26
378_C13H12O_0-3-10-8 (120,) energy =    -577.8196764
C           1.1450597    -0.4857859    -0.6235845
H           0.9548922     0.2200880     0.2001562
H           1.2417049     0.1078805    -1.5431690
O           2.3548129    -1.1993173    -0.3495269
C           5.7597670     1.0290586     0.5748237
H           6.6545750     1.5941248     0.8199932
C           5.2253413     0.1248292     1.4949888
H           5.7020458    -0.0156253     2.4615742
C           4.0729455    -0.5979116     1.1847703
H           3.6410488    -1.3033011     1.8881969
C           3.4596523    -0.4264775    -0.0588815
C           3.9923091     0.4734964    -0.9879817
H           3.5223543     0.5891449    -1.9601798
C           5.1390718     1.1996234    -0.6645962
H           5.5532847     1.8954315    -1.3896023
C          -2.1879324    -3.2098037    -0.9581393
H          -3.0340326    -3.8873797    -1.0360217
C          -1.1177685    -3.5159415    -0.1149518
H          -1.1285005    -4.4348691     0.4655433
C          -0.0309809    -2.6473159    -0.0126324
H           0.8058940    -2.8875747     0.6347050
C           0.0022395    -1.4646079    -0.7603402
C          -1.0688625    -1.1687119    -1.6107740
H          -1.0479673    -0.2576984    -2.2055706
C          -2.1613133    -2.0318145    -1.7061148
H          -2.9851567    -1.7885662    -2.3719672
26
378_C13H12O_0-3-10-8 (135,) energy =    -577.8205728
C           1.2017104    -0.4828919    -0.8795285
H           1.0475772     0.3316097    -0.1560438
H           1.2865363    -0.0258177    -1.8752655
O           2.4034142    -1.1822275    -0.5390694
C           5.7268390     1.0058955     0.7145982
H           6.5990528     1.5593831     1.0503600
C           5.3178752    -0.1436327     1.3958768
H           5.8684733    -0.4862584     2.2681214
C           4.1943363    -0.8515007     0.9735741
H           3.8578995    -1.7422645     1.4951575
C           3.4824723    -0.4230487    -0.1521410
C           3.8838468     0.7291677    -0.8371362
H           3.3342567     1.0639018    -1.7113036
C           5.0043605     1.4376796    -0.3981955
H           5.3136826     2.3302773    -0.9358669
C          -2.1863795    -3.1564568    -0.7776753
H          -3.0460685    -3.8205088    -0.7458892
C          -1.1777803    -3.2674208     0.1827016
H          -1.2508848    -4.0196831     0.9638442
C          -0.0744758    -2.4159299     0.1443193
H           0.7151710    -2.5076874     0.8834014
C           0.0383185    -1.4466525    -0.8598826
C          -0.9703345    -1.3481056    -1.8238276
H          -0.8866294    -0.6068668    -2.6158826
C          -2.0806690    -2.1933799    -1.7814863
H          -2.8557870    -2.1052476    -2.5381799
26
378_C13H12O_0-3-10-8 (150,) energy =    -577.8220741
C           1.2217593    -0.5091749    -0.9428693
H           1.0440015     0.3767597    -0.3146146
H           1.3669109    -0.1573352    -1.9739870
O           2.3907025    -1.1832035    -0.4727323
C           5.7396238     0.9966685     0.7198538
H           6.6191640     1.5461663     1.0425976
C           5.4278866    -0.2394106     1.2947668
H           6.0637105    -0.6545890     2.0724047
C           4.2966563    -0.9418488     0.8895713
H           4.0354959    -1.8987762     1.3309031
C           3.4718190    -0.4194564    -0.1150631
C           3.7734359     0.8192670    -0.6924432
H           3.1410985     1.2347664    -1.4699179
C           4.9073759     1.5182702    -0.2693150
H           5.1373769     2.4784608    -0.7239066
C          -2.2080469    -3.1229257    -0.7480163
H          -3.0785597    -3.7712592    -0.6942797
C          -1.2542087    -3.1425022     0.2726294
H          -1.3810599    -3.8074712     1.1229875
C          -0.1372214    -2.3107916     0.2063444
H           0.6095501    -2.3316091     0.9939016
C           0.0442768    -1.4539689    -0.8862289
C          -0.9096957    -1.4467446    -1.9089236
H          -0.7720978    -0.7936808    -2.7681818
C          -2.0337556    -2.2718670    -1.8395954
H          -2.7658518    -2.2559439    -2.6426534
26
378_C13H12O_0-3-10-8 (165,) energy =    -577.8231825
C           1.2086583    -0.5132562    -0.8964308
H           0.9812174     0.4111333    -0.3432069