30
383_C14H15N_3-0-14-12 (-165,) energy =    -597.2657264
C           0.6422123    -0.2003867     0.0934225
H           1.1180919    -0.3196039     1.0733834
H          -0.0792872     0.6211179     0.2186643
N           1.6561902     0.2070614    -0.8690524
C           1.2016787     1.1002340    -1.9187048
H           0.1805960     0.8243884    -2.1968982
H           1.8276230     0.9944015    -2.8100759
H           1.2032065     2.1624041    -1.6189379
C          -1.5282779    -3.8405545    -0.8232420
H          -2.0735275    -4.7547504    -1.0423308
C          -2.0076081    -2.9500844     0.1410960
H          -2.9291400    -3.1684071     0.6747538
C          -1.3082492    -1.7760368     0.4165206
H          -1.6910374    -1.0839549     1.1648803
C          -0.1191552    -1.4736381    -0.2608162
C           0.3529291    -2.3693506    -1.2244312
H           1.2708042    -2.1354306    -1.7554748
C          -0.3476948    -3.5452782    -1.5047465
H           0.0320652    -4.2308574    -2.2580804
C           5.7734234    -0.0685993     0.0759054
H           6.8298320    -0.1447184     0.3157857
C           5.3115913     0.9086971    -0.8047893
H           6.0098984     1.6109640    -1.2538655
C           3.9561220     1.0167423    -1.1144111
H           3.6310877     1.8068492    -1.7819588
C           3.0149713     0.1307701    -0.5505136
C           3.4946020    -0.8648290     0.3293223
H           2.8081258    -1.5959149     0.7444927
C           4.8487810    -0.9518967     0.6379113
H           5.1841696    -1.7326171     1.3163514
30
383_C14H15N_3-0-14-12 (-150,) energy =    -597.2658283
C           0.8378327    -0.4130587     0.1366603
H           1.3911952    -0.7100441     1.0321671
H           0.2395683     0.4647235     0.4356048
N           1.8011377    -0.0302650    -0.8947506
C           1.2434537     0.8438918    -1.9121306
H           0.2578979     0.4629407    -2.1950910
H           1.8747789     0.8392624    -2.8051480
H           1.1240234     1.8878959    -1.5723050
C          -1.8218086    -3.6649566    -0.9216135
H          -2.4866305    -4.4868310    -1.1738974
C          -2.2490140    -2.6561962    -0.0561763
H          -3.2498717    -2.6875481     0.3667853
C          -1.3951415    -1.5985858     0.2595410
H          -1.7369784    -0.8113817     0.9290649
C          -0.1025477    -1.5365739    -0.2748399
C           0.3156858    -2.5499275    -1.1452305
H           1.3106829    -2.4936731    -1.5773658
C          -0.5378978    -3.6061970    -1.4671417
H          -0.1993875    -4.3843175    -2.1466501
C           5.9201983     0.2606612     0.0660871
H           6.9773085     0.3251586     0.3065863
C           5.3205370     1.2061167    -0.7632816
H           5.9093218     2.0242202    -1.1711890
C           3.9611144     1.1331720    -1.0722353
H           3.5233662     1.9008103    -1.7002705
C           3.1618312     0.0925360    -0.5620062
C           3.7834619    -0.8695542     0.2632107
H           3.2080395    -1.7126842     0.6338628
C           5.1355560    -0.7774259     0.5761611
H           5.5834415    -1.5370432     1.2122043
30
383_C14H15N_3-0-14-12 (-135,) energy =    -597.2656813
C           0.9047860    -0.5456425     0.2235220
H           1.5004387    -0.9311710     1.0545871
H           0.3476719     0.3173274     0.6284460
N           1.8167897    -0.1036632    -0.8330913
C           1.1910769     0.7791938    -1.8023508
H           0.2043877     0.3787221    -2.0510237
H           1.7822328     0.8140728    -2.7218750
H           1.0594401     1.8109667    -1.4306856
C          -1.9071108    -3.6035049    -1.0001225
H          -2.6105048    -4.3764150    -1.2983903
C          -2.3437865    -2.5055463    -0.2589520
H          -3.3904200    -2.4162506     0.0204223
C          -1.4372524    -1.5116735     0.1175962
H          -1.7835636    -0.6543265     0.6914694
C          -0.0858691    -1.6053143    -0.2311987
C           0.3412482    -2.7073844    -0.9841023
H           1.3841480    -2.7717746    -1.2826351
C          -0.5611614    -3.6997711    -1.3642571
H          -0.2151222    -4.5492219    -1.9476665
C           5.9542688     0.3454679    -0.0111870
H           7.0159309     0.4503046     0.1921790
C           5.2834267     1.2817643    -0.7948329
H           5.8203401     2.1337762    -1.2049161
C           3.9177320     1.1560440    -1.0552912
H           3.4256511     1.9176377    -1.6492508
C           3.1818034     0.0703921    -0.5422470
C           3.8760106    -0.8805342     0.2372101
H           3.3544710    -1.7561948     0.6119293
C           5.2337356    -0.7366334     0.5018923
H           5.7367490    -1.4900010     1.1032197
30
383_C14H15N_3-0-14-12 (-120,) energy =    -597.2651288
C           0.9606746    -0.6398671     0.2777412
H           1.5912870    -1.0900707     1.0467327
H           0.4359805     0.2000768     0.7667614
N           1.8251489    -0.1372021    -0.7946425
C           1.1457094     0.7606088    -1.7119711
H           0.1643362     0.3408590    -1.9485526
H           1.7094683     0.8467875    -2.6451770
H           0.9948818     1.7741051    -1.2988006
C          -1.9556196    -3.5374094    -1.0814413
H          -2.6854615    -4.2681268    -1.4197736
C          -2.3772977    -2.3498724    -0.4849732
H          -3.4377619    -2.1477326    -0.3587748
C          -1.4348793    -1.4123387    -0.0532793
H          -1.7674770    -0.4864441     0.4117083
C          -0.0652965    -1.6516684    -0.2029556
C           0.3470576    -2.8438134    -0.8149276
H           1.4086489    -3.0268574    -0.9614722
C          -0.5887609    -3.7812353    -1.2473811
H          -0.2537647    -4.7029230    -1.7162099
C           5.9710298     0.4244678    -0.0834952
H           7.0346344     0.5585709     0.0903767
C           5.2442097     1.3634113    -0.8119881
H           5.7386126     2.2471205    -1.2082429
C           3.8758100     1.1996690    -1.0338500
H           3.3401682     1.9642441    -1.5845584
C           3.1922012     0.0721172    -0.5379376
C           3.9433140    -0.8794375     0.1862110
H           3.4652548    -1.7846374     0.5481605
C           5.3033713    -0.6983345     0.4132028
H           5.8499091    -1.4540419     0.9721526
30
383_C14H15N_3-0-14-12 (-105,) energy =    -597.2643753
C           0.6408110     0.1188869    -1.4398693
H           0.3212288     0.8039263    -0.6526830
H           0.1817289     0.4755393    -2.3703465
N           2.0980109     0.2293716    -1.5953880
C           2.6314769    -0.5168335    -2.7225476
H           1.9690200    -0.3711833    -3.5820702
H           2.7165232    -1.6010040    -2.5433910
H           3.6193803    -0.1291503    -2.9887785
C          -0.7595770    -3.8985083    -0.5994032
H          -1.1071467    -4.9066302    -0.3896424
C          -0.9482749    -3.3407956    -1.8638574
H          -1.4431296    -3.9122663    -2.6449659
C          -0.5013320    -2.0441883    -2.1282012
H          -0.6555140    -1.6121254    -3.1151398
C           0.1345146    -1.2859109    -1.1383090
C           0.3170806    -1.8573896     0.1300337
H           0.8090812    -1.2824031     0.9100586
C          -0.1249269    -3.1525501     0.3973782
H           0.0216206    -3.5790757     1.3863684
C           4.5945321     0.8318582     1.7852449
H           5.2375342     0.9996957     2.6442290
C           4.9782377    -0.0368696     0.7663449
H           5.9280463    -0.5627169     0.8274686
C           4.1526545    -0.2618619    -0.3366042
H           4.4739281    -0.9659797    -1.0952377
C           2.9121679     0.3951898    -0.4598984
C           2.5393943     1.2809753     0.5758362
H           1.6101651     1.8371614     0.5062989
C           3.3643670     1.4865217     1.6764565
H           3.0458788     2.1796137     2.4513833
30
383_C14H15N_3-0-14-12 (-90,) energy =    -597.2639650
C           0.5961066     0.1688999    -1.4400718
H           0.2781689     0.8655829    -0.6625963
H           0.1217712     0.5025753    -2.3711962
N           2.0498860     0.2988649    -1.6280419
C           2.5645716    -0.3669783    -2.8122537
H           1.8933434    -0.1558647    -3.6512694
H           2.6486549    -1.4618187    -2.7139501
H           3.5510702     0.0353562    -3.0615397
C          -0.6737105    -3.8640841    -0.4787700
H          -0.9828549    -4.8777339    -0.2378366
C          -0.6326015    -3.4408201    -1.8079825
H          -0.9110807    -4.1230073    -2.6071496
C          -0.2388438    -2.1369146    -2.1135934
H          -0.2218766    -1.8101918    -3.1513520
C           0.1172811    -1.2359932    -1.1013496
C           0.0713994    -1.6740999     0.2299636
H           0.3490106    -0.9902954     1.0279273
C          -0.3211208    -2.9763714     0.5399669
H          -0.3547467    -3.2972089     1.5779296
C           4.6044927     0.6484148     1.7457811
H           5.2619591     0.7528407     2.6038972
C           4.9669499    -0.1489167     0.6628408
H           5.9144062    -0.6823990     0.6717227
C           4.1224353    -0.2919576    -0.4394710
H           4.4279441    -0.9429617    -1.2502695
C           2.8846540     0.3780629    -0.4964377
C           2.5327274     1.1896629     0.6046945
H           1.6050015     1.7523774     0.5902790
C           3.3766351     1.3147636     1.7030364
H           3.0746113     1.9532572     2.5297408
30
383_C14H15N_3-0-14-12 (-75,) energy =    -597.2630343
C           0.5947322     0.1539936    -1.4955661
H           0.2555471     0.8937651    -0.7667440
H           0.1382346     0.4396995    -2.4506426
N           2.0467403     0.2812025    -1.6739411
C           2.5781290    -0.2302486    -2.9247113
H           1.8575946    -0.0268863    -3.7225362
H           2.7817979    -1.3137773    -2.9153748
H           3.5086733     0.2894237    -3.1756135
C          -0.7209144    -3.8075677    -0.3116399
H          -1.0412669    -4.8019670    -0.0123591
C          -0.3547481    -3.5562041    -1.6356568
H          -0.3934141    -4.3545540    -2.3723310
C           0.0535641    -2.2786535    -2.0185376
H           0.3178602    -2.0910601    -3.0564291
C           0.1045123    -1.2296118    -1.0887706
C          -0.2676557    -1.4958073     0.2351089
H          -0.2342507    -0.6963956     0.9707891
C          -0.6786683    -2.7724506     0.6227076
H          -0.9653739    -2.9570637     1.6547259
C           4.6485975     0.4974966     1.6744616
H           5.3182293     0.5673996     2.5265658
C           5.0732539    -0.0738215     0.4770316
H           6.0847445    -0.4625795     0.3865209
C           4.2151781    -0.1720701    -0.6183720
H           4.5804861    -0.6456124    -1.5216415
C           2.8928900     0.3160756    -0.5543317
C           2.4745266     0.8893773     0.6674082
H           1.4737216     1.2928653     0.7698177
C           3.3386864     0.9753423     1.7541219
H           2.9799143     1.4289654     2.6749616
30
383_C14H15N_3-0-14-12 (-60,) energy =    -597.2630980
C           0.6610949     0.0819884    -1.5021821
H           0.3472531     0.8772518    -0.8139912
H           0.2091751     0.3286220    -2.4689377
N           2.1074296     0.1433183    -1.6843779
C           2.6502656    -0.0404217    -3.0182133
H           1.8352485    -0.0061469    -3.7442633
H           3.1729218    -1.0022054    -3.1384591
H           3.3587817     0.7590986    -3.2739609
C          -1.0176691    -3.6896678    -0.1636774
H          -1.4453346    -4.6329110     0.1654193
C          -0.2652599    -3.6319140    -1.3397724
H          -0.1101713    -4.5304896    -1.9313979
C           0.2824557    -2.4215993    -1.7618568
H           0.8634325    -2.3883634    -2.6804064
C           0.0999331    -1.2503301    -1.0133386
C          -0.6642244    -1.3198490     0.1560714
H          -0.8331883    -0.4170838     0.7398371
C          -1.2186504    -2.5289589     0.5823391
H          -1.8046715    -2.5619398     1.4971101
C           4.7731048     0.4352838     1.5947404
H           5.4584073     0.5193871     2.4329407
C           5.2500393     0.2741417     0.2944829
H           6.3205490     0.2306301     0.1081661
C           4.3768989     0.1617789    -0.7855236
H           4.7927414     0.0298636    -1.7770983
C           2.9766513     0.2148805    -0.5979861
C           2.5055329     0.3635542     0.7260691
H           1.4431354     0.3799665     0.9311735
C           3.3923496     0.4748470     1.7932831
H           2.9899190     0.5885012     2.7971127
30
383_C14H15N_3-0-14-12 (-45,) energy =    -597.2644545
C           0.7140495    -0.0232557    -1.4640808
H           0.4772308     0.7976465    -0.7708638
H           0.2520412     0.2472836    -2.4200275
N           2.1554631    -0.0952132    -1.6851909
C           2.6460558     0.1062348    -3.0385138
H           1.8504306    -0.1329387    -3.7471669
H           3.4887491    -0.5617107    -3.2525151
H           2.9780418     1.1406225    -3.2284657
C          -1.2713214    -3.6370753    -0.1255595
H          -1.7824572    -4.5400034     0.1975823
C          -0.2818657    -3.7037892    -1.1098205
H          -0.0222063    -4.6604312    -1.5559618
C           0.3754398    -2.5458453    -1.5237346
H           1.1546863    -2.6037244    -2.2791685
C           0.0624096    -1.3049980    -0.9556970
C          -0.9321932    -1.2482585     0.0267996
H          -1.1892523    -0.2893403     0.4732972
C          -1.5955269    -2.4049217     0.4423290
H          -2.3604818    -2.3422245     1.2119831
C           4.8199775     0.4638790     1.5611069
H           5.5029446     0.6056015     2.3935292
C           5.2691206     0.5610406     0.2446759
H           6.3132894     0.7858855     0.0404857
C           4.3986789     0.3823596    -0.8290399
H           4.7883646     0.4797190    -1.8352511
C           3.0332413     0.0914424    -0.6144272
C           2.5897435    -0.0091371     0.7230647
H           1.5589143    -0.2622848     0.9376356
C           3.4725077     0.1762456     1.7836384
H           3.0955115     0.0870868     2.7996896
30
383_C14H15N_3-0-14-12 (-30,) energy =    -597.2651962
C           0.7026766    -0.0468743    -1.4078622
H           0.5187171     0.7479011    -0.6700961
H           0.2110496     0.2837594    -2.3305586
N           2.1296403    -0.1502945    -1.6888200
C           2.5671684     0.0632303    -3.0579059
H           1.7509588    -0.1914646    -3.7374383
H           3.4131405    -0.5894898    -3.3017096
H           2.8730958     1.1037593    -3.2587567
C          -1.3268083    -3.6674881    -0.1553852
H          -1.8476778    -4.5715686     0.1484512
C          -0.1840790    -3.7493861    -0.9533926
H           0.1885605    -4.7193979    -1.2726493
C           0.4869710    -2.5891193    -1.3418203
H           1.3860258    -2.6539080    -1.9480227
C           0.0289376    -1.3317047    -0.9351143
C          -1.1152419    -1.2589528    -0.1311288
H          -1.4790764    -0.2868970     0.1973223
C          -1.7910404    -2.4169278     0.2561398
H          -2.6750041    -2.3422334     0.8843123
C           4.9153260     0.3030860     1.4701115
H           5.6288112     0.4165236     2.2809924
C           5.3153549     0.4469758     0.1422036
H           6.3509982     0.6812103    -0.0925138
C           4.4052001     0.3050562    -0.9039773
H           4.7556285     0.4414414    -1.9202021
C           3.0496564     0.0043194    -0.6480011
C           2.6552321    -0.1434725     0.7004926
H           1.6323538    -0.4058154     0.9433309
C           3.5768889     0.0065354     1.7330648
H           3.2384628    -0.1183901     2.7588322
30
383_C14H15N_3-0-14-12 (-15,) energy =    -597.2654396
C           0.7087524    -0.0237769    -1.2947472
H           0.5811713     0.7135236    -0.4899145
H           0.1958445     0.4012183    -2.1667756
N           2.1207100    -0.1463603    -1.6302715
C           2.4970216     0.0283163    -3.0222096
H           1.6579363    -0.2649783    -3.6571850
H           3.3443627    -0.6174667    -3.2782320
H           2.7735861     1.0668060    -3.2709502
C          -1.3836532    -3.6722791    -0.2377914
H          -1.9183845    -4.5822853     0.0209505
C          -0.1212570    -3.7425465    -0.8272716
H           0.3332083    -4.7093742    -1.0283680
C           0.5675396    -2.5733781    -1.1585872
H           1.5559008    -2.6254709    -1.6053854
C           0.0042524    -1.3204865    -0.9030141
C          -1.2616653    -1.2583053    -0.3048901
H          -1.7094315    -0.2885863    -0.0934170
C          -1.9530343    -2.4235713     0.0240294
H          -2.9332262    -2.3575669     0.4893558
C           5.0390581     0.2962106     1.4057310
H           5.7864735     0.4066438     2.1858549
C           5.3766489     0.4725642     0.0644294
H           6.3965615     0.7300020    -0.2112580
C           4.4226165     0.3352210    -0.9427957
H           4.7222776     0.4994737    -1.9712639
C           3.0858206     0.0064757    -0.6313711
C           2.7551092    -0.1774966     0.7297780
H           1.7491337    -0.4682750     1.0103643
C           3.7192066    -0.0301344     1.7230559
H           3.4305708    -0.1829011     2.7601923
30
383_C14H15N_3-0-14-12 (0,) energy =    -597.2655471
C           0.7223490    -0.0157338    -1.1425165
H           0.6559342     0.6327426    -0.2594759
H           0.1973723     0.5257316    -1.9411708
N           2.1183999    -0.1517235    -1.5301035
C           2.4188363    -0.0482526    -2.9466243
H           1.5638683    -0.4184300    -3.5179282
H           3.2819057    -0.6711578    -3.2045680
H           2.6323009     0.9839967    -3.2723259
C          -1.4591206    -3.6846214    -0.3696454
H          -2.0146894    -4.5984800    -0.1766798
C          -0.1143105    -3.7419798    -0.7334014
H           0.3846966    -4.7034957    -0.8239423
C           0.5999749    -2.5665267    -0.9816865
H           1.6488821    -2.6083010    -1.2591434
C          -0.0213099    -1.3207954    -0.8678670
C          -1.3735622    -1.2715001    -0.5009065
H          -1.8705543    -0.3069816    -0.4086272
C          -2.0883042    -2.4418961    -0.2531896
H          -3.1361081    -2.3857163     0.0307660
C           5.1871658     0.3470802     1.3418380
H           5.9739078     0.4713986     2.0800413
C           5.4436818     0.5486106    -0.0139042
H           6.4382959     0.8407971    -0.3423230
C           4.4388658     0.3946050    -0.9681528
H           4.6715601     0.5830276    -2.0100027
C           3.1327260     0.0220136    -0.5860876
C           2.8853569    -0.1910650     0.7884538
H           1.9066361    -0.5228059     1.1180747
C           3.8978406    -0.0241051     1.7288640
H           3.6736926    -0.2000462     2.7782107
30
383_C14H15N_3-0-14-12 (15,) energy =    -597.2657111
C           0.7224293    -0.0468403    -0.9732514
H           0.7254040     0.4845070    -0.0145633
H           0.1952649     0.6189797    -1.6728272
N           2.0983835    -0.2037960    -1.4224104
C           2.3029018    -0.1408037    -2.8577730
H           1.4461743    -0.6036178    -3.3556193
H           3.1959392    -0.7052993    -3.1431882
H           2.4088419     0.8895890    -3.2386660
C          -1.5867713    -3.6910070    -0.5311867
H          -2.1723980    -4.5990577    -0.4148254
C          -0.2005091    -3.7598212    -0.6675257
H           0.3000847    -4.7247262    -0.6570132
C           0.5520018    -2.5921514    -0.8190745
H           1.6311817    -2.6432461    -0.9282585
C          -0.0721493    -1.3417789    -0.8353266
C          -1.4662982    -1.2819733    -0.7040176
H          -1.9662995    -0.3149247    -0.7239226
C          -2.2191212    -2.4449342    -0.5497890
H          -3.2996297    -2.3802721    -0.4498233
C           5.3301434     0.4429389     1.2339503
H           6.1591205     0.6032273     1.9169231
C           5.4790842     0.6710810    -0.1334574
H           6.4305255     1.0213307    -0.5265903
C           4.4182691     0.4725352    -1.0166685
H           4.5637709     0.6868649    -2.0694901
C           3.1653835     0.0246168    -0.5492775
C           3.0285245    -0.2172168     0.8357453
H           2.0951634    -0.6092871     1.2270477
C           4.0932542    -0.0025823     1.7057321
H           3.9544468    -0.2020994     2.7655479
30
383_C14H15N_3-0-14-12 (30,) energy =    -597.2658213
C           0.7851161    -0.1223920    -0.7637824
H           0.8426143     0.2570132     0.2610457
H           0.2869439     0.6722333    -1.3435251
N           2.1431489    -0.3125268    -1.2630238
C           2.2629266    -0.2455560    -2.7082392
H           1.4068494    -0.7611202    -3.1529631
H           3.1707723    -0.7574148    -3.0404743
H           2.2827524     0.7877679    -3.0967923
C          -1.7200615    -3.6582238    -0.7607066
H          -2.3529382    -4.5416396    -0.7488971
C          -0.3347444    -3.7838299    -0.6428550
H           0.1153667    -4.7678262    -0.5384144
C           0.4788246    -2.6496011    -0.6610068
H           1.5578949    -2.7451402    -0.5812557
C          -0.0812159    -1.3744218    -0.7969599
C          -1.4709599    -1.2585333    -0.9239591
H          -1.9182804    -0.2731415    -1.0418938
C          -2.2869749    -2.3900034    -0.9019368
H          -3.3638298    -2.2818787    -1.0033894
C           5.4876655     0.5935145     1.1750730
H           6.3461949     0.8161802     1.8017721
C           5.5268299     0.8319614    -0.1975282
H           6.4205280     1.2530076    -0.6518794
C           4.4257595     0.5538035    -1.0082186
H           4.4835180     0.7775017    -2.0674823
C           3.2458983     0.0117831    -0.4606994
C           3.2225921    -0.2408342     0.9285980
H           2.3496199    -0.7033483     1.3791219
C           4.3226822     0.0547238     1.7272341
H           4.2717803    -0.1555354     2.7927900
30
383_C14H15N_3-0-14-12 (45,) energy =    -597.2657255
C           0.8250299    -0.2267929    -0.5845310
H           0.9273482     0.0060266     0.4783034
H           0.3445451     0.6566738    -1.0401727
N           2.1627199    -0.4163113    -1.1479360
C           2.1958921    -0.3241573    -2.5972834
H           1.3426773    -0.8770261    -3.0001448
H           3.1089976    -0.7832293    -2.9866308
H           2.1391643     0.7142905    -2.9693541
C          -1.8087537    -3.6428426    -0.9668205
H          -2.4732340    -4.4988760    -1.0492722
C          -0.4727998    -3.8228861    -0.5981644
H          -0.0956915    -4.8214088    -0.3922196
C           0.3809038    -2.7254149    -0.4941110
H           1.4240762    -2.8651422    -0.2237267
C          -0.0866397    -1.4310868    -0.7577458
C          -1.4235703    -1.2616136    -1.1331579
H          -1.7970443    -0.2621400    -1.3474845
C          -2.2823544    -2.3584724    -1.2350240
H          -3.3176164    -2.2086353    -1.5304164
C           5.5825792     0.7568636     1.0705907
H           6.4609705     1.0451444     1.6404948
C           5.5113276     0.9997761    -0.2993624
H           6.3371986     1.4897359    -0.8095088
C           4.3828536     0.6370890    -1.0367380
H           4.3539472     0.8648219    -2.0961296
C           3.2886151     0.0031344    -0.4169564
C           3.3790799    -0.2521581     0.9687767
H           2.5764466    -0.7810304     1.4740503
C           4.5026171     0.1271324     1.6954394
H           4.5395152    -0.0883011     2.7605231
30
383_C14H15N_3-0-14-12 (60,) energy =    -597.2651724
C           0.8183889    -0.3151992    -0.4123021
H           0.9744341    -0.1969313     0.6616838
H           0.3319967     0.6153853    -0.7553070
N           2.1272569    -0.4670201    -1.0573619
C           2.0754411    -0.3167222    -2.5012838
H           1.2207698    -0.8834914    -2.8804709
H           2.9812034    -0.7262631    -2.9570908
H           1.9623914     0.7330310    -2.8269185
C          -1.8753080    -3.6443244    -1.0487821
H          -2.5544601    -4.4798329    -1.1964270
C          -0.6278895    -3.8503572    -0.4514777
H          -0.3359857    -4.8475797    -0.1322717
C           0.2429889    -2.7793510    -0.2618096
H           1.2183732    -2.9436671     0.1894049
C          -0.1153771    -1.4857160    -0.6666951
C          -1.3645978    -1.2910611    -1.2641149
H          -1.6552396    -0.2912033    -1.5801753
C          -2.2418855    -2.3621496    -1.4555088
H          -3.2079487    -2.1926154    -1.9238749
C           5.6285917     0.7740128     0.9954285
H           6.5282316     1.0786924     1.5220753
C           5.4625169     1.0633680    -0.3569471
H           6.2344195     1.6064569    -0.8969484
C           4.3057463     0.6794853    -1.0379863
H           4.2022776     0.9439941    -2.0840041
C           3.2788189    -0.0236969    -0.3790908
C           3.4658293    -0.3239136     0.9877612
H           2.7180308    -0.9030085     1.5212038
C           4.6157193     0.0763878     1.6595175
H           4.7272201    -0.1754100     2.7113550
30
383_C14H15N_3-0-14-12 (75,) energy =    -597.2643639
C           0.4159203     0.1512688    -0.1669064
H           0.5474852     0.2047973     0.9151518
H          -0.3810172     0.8612608    -0.4208179
N           1.6490507     0.6218634    -0.8137191
C           1.5468031     0.7533066    -2.2574266
H           0.5854444     1.2189655    -2.4979424
H           1.6023311    -0.2041282    -2.8006126
H           2.3406924     1.4096090    -2.6262949
C          -0.8081399    -3.8452915    -1.3248092
H          -1.1136048    -4.8467285    -1.6163119
C           0.2607988    -3.6650199    -0.4430596
H           0.7886933    -4.5278238    -0.0451291
C           0.6497657    -2.3806313    -0.0643053
H           1.4817894    -2.2486780     0.6223679
C          -0.0200172    -1.2534638    -0.5637651
C          -1.0898450    -1.4474640    -1.4453884
H          -1.6247246    -0.5833364    -1.8348724
C          -1.4841602    -2.7324449    -1.8248934
H          -2.3192963    -2.8623454    -2.5084334
C           5.4440107    -0.2839923     0.8611556
H           6.4171720    -0.5003927     1.2919794
C           5.2458225    -0.3392081    -0.5164120
H           6.0681035    -0.6083793    -1.1750395
C           3.9953323    -0.0688718    -1.0748871
H           3.8746406    -0.1492605    -2.1488872
C           2.8988843     0.2829095    -0.2626837
C           3.1158628     0.3445915     1.1320726
H           2.3110737     0.6470533     1.7942818
C           4.3629973     0.0599238     1.6777658
H           4.4929791     0.1226800     2.7554799
30
383_C14H15N_3-0-14-12 (90,) energy =    -597.2639118
C           0.3908145     0.1750288    -0.1300896
H           0.5156406     0.2387698     0.9521223
H          -0.4232665     0.8620812    -0.3916227
N           1.6086297     0.6865889    -0.7795264
C           1.4751316     0.9200706    -2.2071797
H           0.5186442     1.4203220    -2.3915221
H           1.5005531     0.0031851    -2.8189535
H           2.2737842     1.5858577    -2.5478989
C          -0.6942443    -3.8704025    -1.2546548
H          -0.9638033    -4.8846945    -1.5369097
C           0.1435960    -3.6452942    -0.1604739
H           0.5274689    -4.4847334     0.4134588
C           0.4847771    -2.3427807     0.2047154
H           1.1385931    -2.1752456     1.0567405
C           0.0016739    -1.2441321    -0.5202092
C          -0.8471868    -1.4836658    -1.6089483
H          -1.2526779    -0.6422513    -2.1670440
C          -1.1913031    -2.7851858    -1.9778840
H          -1.8529318    -2.9505031    -2.8243497
C           5.4279396    -0.3988863     0.7256179
H           6.4075499    -0.6610328     1.1144286
C           5.1938792    -0.3560719    -0.6466872
H           5.9938586    -0.5935559    -1.3438200
C           3.9348142    -0.0264363    -1.1515067
H           3.7853482    -0.0305530    -2.2249076
C           2.8669641     0.2876648    -0.2882286
C           3.1197926     0.2481963     1.1008029
H           2.3372931     0.5162449     1.8032109
C           4.3749903    -0.0936002     1.5925614
H           4.5338174    -0.1076062     2.6681620
30
383_C14H15N_3-0-14-12 (105,) energy =    -597.2630152
C           0.3782575     0.2117414    -0.1484858
H           0.4722484     0.3350185     0.9330372
H          -0.4339599     0.8793361    -0.4589235
N           1.5974147     0.7091353    -0.7989897
C           1.4566906     1.1047500    -2.1891998
H           0.4708311     1.5580802    -2.3281913
H           1.5540137     0.2709555    -2.9040642
H           2.2089373     1.8594188    -2.4417157
C          -0.6907387    -3.8942212    -1.0577581
H          -0.9577625    -4.9227538    -1.2854119
C          -0.1313007    -3.5710494     0.1786533
H           0.0388116    -4.3472422     0.9202249
C           0.2083746    -2.2484210     0.4691247
H           0.6436466    -2.0062346     1.4352457
C           0.0027815    -1.2291785    -0.4691916
C          -0.5757920    -1.5658280    -1.7018906
H          -0.7757801    -0.7864053    -2.4331841
C          -0.9150405    -2.8859166    -1.9976738
H          -1.3636441    -3.1261958    -2.9581809
C           5.4392625    -0.4671176     0.5742016
H           6.4248396    -0.7532251     0.9293818
C           5.2254189    -0.1551236    -0.7665443
H           6.0491438    -0.2008565    -1.4749370
C           3.9602225     0.2065289    -1.2294173
H           3.8356083     0.4185890    -2.2844194
C           2.8573525     0.2811280    -0.3523568
C           3.0879588    -0.0420087     1.0036757
H           2.2802678     0.0102665     1.7245536
C           4.3537306    -0.4069206     1.4507733
H           4.4904173    -0.6426320     2.5034895
30
383_C14H15N_3-0-14-12 (120,) energy =    -597.2630098
C           0.3784161     0.1853042    -0.2248818
H           0.4769252     0.3794262     0.8502959
H          -0.4311705     0.8369840    -0.5712653
N           1.5913354     0.6228573    -0.9093474
C           1.4581990     1.2832494    -2.1953398
H           0.4211062     1.5986767    -2.3294595
H           1.7301658     0.6356561    -3.0440361