30
383_C14H15N_0-3-25-26 (-165,) energy =    -597.2654418
C           1.1459020    -0.4532530    -1.9137274
H           1.0712920     0.6145116    -1.6732958
H           1.0413686    -0.5095294    -3.0055051
N           2.4749751    -0.9199086    -1.5612172
C           3.0804127    -1.9241846    -2.4163104
H           2.2945339    -2.4241832    -2.9871574
H           3.5945716    -2.6893882    -1.8229626
H           3.8074169    -1.4994715    -3.1275615
C          -2.2147278    -2.5258877    -0.1167561
H          -3.0628188    -3.0382802     0.3295512
C          -0.9237789    -2.7585992     0.3564590
H          -0.7611051    -3.4536953     1.1762422
C           0.1673268    -2.1012376    -0.2183739
H           1.1718058    -2.2832455     0.1512319
C          -0.0195174    -1.2034359    -1.2726175
C          -1.3200678    -0.9775635    -1.7443441
H          -1.4794649    -0.2849847    -2.5693706
C          -2.4102493    -1.6306522    -1.1719477
H          -3.4118657    -1.4453711    -1.5515607
C           4.7420083     0.9078320     1.5097863
H           5.3239589     1.3756930     2.2982431
C           3.3708841     1.1457176     1.3973680
H           2.8718171     1.7986510     2.1093966
C           2.6148803     0.5467649     0.3935733
H           1.5446836     0.7197290     0.3677280
C           3.2192364    -0.3119674    -0.5528468
C           4.6048679    -0.5540900    -0.4243720
H           5.1136908    -1.1990815    -1.1314698
C           5.3447236     0.0487548     0.5912968
H           6.4107650    -0.1562529     0.6554151
30
383_C14H15N_0-3-25-26 (-150,) energy =    -597.2657817
C           1.1130726    -0.3976207    -1.6637366
H           1.0560639     0.6097455    -1.2386079
H           1.0660970    -0.2563499    -2.7551125
N           2.4024356    -0.9765552    -1.3110360
C           2.9086256    -1.9660856    -2.2437869
H           2.0660294    -2.5486532    -2.6271038
H           3.5879763    -2.6585267    -1.7376025
H           3.4413448    -1.5227812    -3.1028254
C          -2.3778736    -2.6233084    -0.3800539
H          -3.2585572    -3.1715477    -0.0561729
C          -1.1731032    -2.7559358     0.3119712
H          -1.1123485    -3.4088260     1.1790292
C          -0.0404795    -2.0543777    -0.1057436
H           0.9002936    -2.1639505     0.4258876
C          -0.0971722    -1.2106853    -1.2203563
C          -1.3081128    -1.0900456    -1.9137032
H          -1.3633109    -0.4453667    -2.7892179
C          -2.4422561    -1.7868238    -1.4965263
H          -3.3734873    -1.6830402    -2.0475716
C           5.0372420     0.9740894     1.3695025
H           5.7109589     1.4693736     2.0623912
C           3.6539115     1.1297337     1.4852510
H           3.2398628     1.7437895     2.2813711
C           2.7840146     0.4921439     0.6059973
H           1.7135505     0.5949100     0.7538108
C           3.2766412    -0.3185105    -0.4409958
C           4.6745465    -0.4715458    -0.5476372
H           5.0983325    -1.0714895    -1.3450881
C           5.5331163     0.1635710     0.3493501
H           6.6058625     0.0271070     0.2349860
30
383_C14H15N_0-3-25-26 (-135,) energy =    -597.2657862
C           1.1051626    -0.3994660    -1.3875187
H           1.0191906     0.5306302    -0.8186343
H           1.1419905    -0.0977401    -2.4492339
N           2.3567431    -1.0560019    -1.0072072
C           2.8030222    -2.0404093    -1.9789860
H           1.9479569    -2.6599183    -2.2640106
H           3.5609711    -2.6927960    -1.5363716
H           3.2203785    -1.5893610    -2.8969129
C          -2.4806265    -2.7256399    -0.6843769
H          -3.3864795    -3.2979092    -0.5025596
C          -1.3839111    -2.8547845     0.1705115
H          -1.4341718    -3.5292457     1.0216078
C          -0.2197511    -2.1219507    -0.0633200
H           0.6399353    -2.2291024     0.5920795
C          -0.1343425    -1.2504084    -1.1557978
C          -1.2349575    -1.1350149    -2.0129555
H          -1.1771895    -0.4693636    -2.8721497
C          -2.4028703    -1.8625263    -1.7785745
H          -3.2475663    -1.7612636    -2.4551774
C           5.2561539     1.1407799     1.1734820
H           5.9948834     1.6976233     1.7425031
C           3.9027461     1.1946816     1.5192186
H           3.5814351     1.7898442     2.3704729
C           2.9544421     0.4753246     0.7999980
H           1.9157315     0.4973717     1.1168742
C           3.3290716    -0.3134683    -0.3084938
C           4.6934877    -0.3602391    -0.6495141
H           5.0237761    -0.9438375    -1.5014066
C           5.6390017     0.3532558     0.0899404
H           6.6855158     0.2968838    -0.1997830
30
383_C14H15N_0-3-25-26 (-120,) energy =    -597.2650914
C           1.1048197    -0.4491272    -1.2122651
H           0.9940166     0.4342628    -0.5756616
H           1.2125452    -0.0697889    -2.2451482
N           2.3216355    -1.1552340    -0.7921586
C           2.7391797    -2.1573914    -1.7628091
H           1.8977451    -2.8283522    -1.9573173
H           3.5638382    -2.7491114    -1.3562758
H           3.0576927    -1.7257722    -2.7291472
C          -2.5411401    -2.7643163    -0.8965416
H          -3.4628863    -3.3337376    -0.8110986
C          -1.5408825    -2.8963419     0.0697541
H          -1.6828508    -3.5702196     0.9109175
C          -0.3573397    -2.1664807    -0.0397457
H           0.4283980    -2.2759452     0.7024606
C          -0.1538956    -1.2954351    -1.1178581
C          -1.1573008    -1.1776363    -2.0860956
H          -1.0072137    -0.5124076    -2.9341695
C          -2.3458448    -1.9020812    -1.9760891
H          -3.1142076    -1.7982914    -2.7379159
C           5.3168045     1.2332232     1.0346694
H           6.0776758     1.8413925     1.5154507
C           4.0306939     1.1464463     1.5769240
H           3.7870704     1.6834101     2.4902679
C           3.0591626     0.3573431     0.9705264
H           2.0746267     0.2669696     1.4216214
C           3.3408294    -0.3581175    -0.2096737
C           4.6320228    -0.2572469    -0.7531034
H           4.8825262    -0.7838888    -1.6675562
C           5.6084258     0.5220079    -0.1271101
H           6.6015325     0.5791185    -0.5660246
30
383_C14H15N_0-3-25-26 (-105,) energy =    -597.2637293
C           1.1186734    -0.4567393    -1.1036308
H           0.9972219     0.4068497    -0.4403118
H           1.2775948    -0.0475603    -2.1190257
N           2.3026403    -1.1989847    -0.6448010
C           2.6989546    -2.2319459    -1.5965221
H           1.8700420    -2.9346925    -1.7199373
H           3.5621336    -2.7787511    -1.2075723
H           2.9535010    -1.8367756    -2.5970191
C          -2.5688973    -2.7244217    -1.0136608
H          -3.5009203    -3.2827365    -0.9850395
C          -1.6466909    -2.8412207     0.0296258
H          -1.8604550    -3.4921860     0.8736602
C          -0.4507119    -2.1251534    -0.0065575
H           0.2750449    -2.2232139     0.7959070
C          -0.1553480    -1.2833869    -1.0872657
C          -1.0806401    -1.1807340    -2.1315725
H          -0.8587507    -0.5380921    -2.9811811
C          -2.2823822    -1.8914275    -2.0954384
H          -2.9893130    -1.7992678    -2.9159890
C           5.3520707     1.3115322     0.9130961
H           6.1248451     1.9540523     1.3258190
C           4.1753033     1.0718793     1.6290098
H           4.0302102     1.5247204     2.6065524
C           3.1924415     0.2358521     1.1070270
H           2.2898765     0.0256148     1.6748077
C           3.3559048    -0.3706531    -0.1502104
C           4.5318122    -0.1117611    -0.8701130
H           4.6808800    -0.5566568    -1.8486661
C           5.5248871     0.7116138    -0.3331209
H           6.4329578     0.8920742    -0.9031147
30
383_C14H15N_0-3-25-26 (-90,) energy =    -597.2621804
C           1.1446330    -0.4837693    -1.0892052
H           1.0106449     0.4014505    -0.4559454
H           1.3546823    -0.1071500    -2.1085206
N           2.2895240    -1.2318998    -0.5490827
C           2.7000451    -2.3197363    -1.4350122
H           1.8736528    -3.0300210    -1.5313120
H           3.5567451    -2.8407892    -0.9991670
H           2.9723284    -1.9863982    -2.4532033
C          -2.5872846    -2.6796346    -1.0967108
H          -3.5303916    -3.2197841    -1.0928564
C          -1.7134590    -2.7830118    -0.0112144
H          -1.9759720    -3.4050148     0.8409120
C          -0.5034028    -2.0900324    -0.0152384
H           0.1848806    -2.1760725     0.8207883
C          -0.1450448    -1.2859189    -1.1054649
C          -1.0224652    -1.1962851    -2.1915284
H          -0.7518231    -0.5826869    -3.0484425
C          -2.2383000    -1.8835207    -2.1878752
H          -2.9074986    -1.8019262    -3.0405905
C           5.3565872     1.3541858     0.8487709
H           6.1331793     2.0175710     1.2196228
C           4.3072776     0.9618178     1.6835455
H           4.2652582     1.3170698     2.7099972
C           3.3193886     0.0998877     1.2102504
H           2.5096429    -0.2273135     1.8566152
C           3.3570694    -0.3780348    -0.1073362
C           4.4036143     0.0337833    -0.9449781
H           4.4463082    -0.3153442    -1.9724244
C           5.4016058     0.8840864    -0.4640193
H           6.2114270     1.1869457    -1.1231417
30
383_C14H15N_0-3-25-26 (-75,) energy =    -597.2621820
C           0.3072969     0.2180909    -0.4420085
H           0.3510367     0.4555962     0.6255302
H          -0.4980440     0.8249332    -0.8747211
N           1.5734173     0.6843820    -1.0479104
C           1.5920913     0.5609206    -2.5010627
H           0.7392187     1.1169824    -2.9082786
H           1.5244147    -0.4728933    -2.8774943
H           2.5104456     1.0120674    -2.8875973
C          -0.5812701    -3.9886699    -1.0037019
H          -0.8010805    -5.0435716    -1.1454175
C           0.2782531    -3.5827035     0.0198075
H           0.7281579    -4.3210903     0.6785367
C           0.5566506    -2.2285522     0.2056811
H           1.2225097    -1.9201776     1.0073415
C          -0.0161970    -1.2567362    -0.6281730
C          -0.8797987    -1.6780128    -1.6477247
H          -1.3437413    -0.9357694    -2.2943817
C          -1.1619479    -3.0322185    -1.8374737
H          -1.8379482    -3.3382745    -2.6318343
C           5.1451086    -0.3291486     1.0098496
H           6.0639678    -0.5652889     1.5394078
C           4.8421956    -0.9619048    -0.1946407
H           5.5239482    -1.7012598    -0.6077175
C           3.6603158    -0.6633982    -0.8777396
H           3.4362617    -1.1769893    -1.8069542
C           2.7628806     0.2865462    -0.3671781
C           3.0919695     0.9410715     0.8333220
H           2.4226651     1.7106502     1.2085293
C           4.2593319     0.6241438     1.5220513
H           4.4927778     1.1421155     2.4489058
30
383_C14H15N_0-3-25-26 (-60,) energy =    -597.2637475
C           0.3553129     0.2283737    -0.4777269
H           0.4051412     0.4901684     0.5824487
H          -0.4224852     0.8592444    -0.9256681
N           1.6389177     0.6079111    -1.0991043
C           1.6532581     0.4370479    -2.5447131
H           0.7780268     0.9462687    -2.9637604
H           1.6214586    -0.6125453    -2.8800249
H           2.5505080     0.9075527    -2.9572038
C          -0.7272277    -3.9456393    -0.9389951
H          -0.9960319    -4.9921815    -1.0560291
C           0.2238223    -3.5670267     0.0118329
H           0.6961906    -4.3191860     0.6384296
C           0.5656257    -2.2237905     0.1663817
H           1.3035423    -1.9370232     0.9108185
C          -0.0347413    -1.2355779    -0.6282775
C          -0.9875798    -1.6285510    -1.5761808
H          -1.4693410    -0.8728163    -2.1936057
C          -1.3342572    -2.9722277    -1.7328561
H          -2.0791259    -3.2564629    -2.4717761
C           5.2121261    -0.2438083     1.0265711
H           6.1300783    -0.4411433     1.5728113
C           5.0313365    -0.7448546    -0.2604583
H           5.8093217    -1.3454082    -0.7255508
C           3.8504677    -0.4980660    -0.9654064
H           3.7293023    -0.9185017    -1.9577235
C           2.8225456     0.2723737    -0.3959392
C           3.0265544     0.7949386     0.8976450
H           2.2656799     1.4326691     1.3387125
C           4.1964001     0.5279691     1.6005641
H           4.3262092     0.9454626     2.5960095
30
383_C14H15N_0-3-25-26 (-45,) energy =    -597.2643972
C           0.3851228     0.1821342    -0.5090300
H           0.4387902     0.4648531     0.5442075
H          -0.3583276     0.8427180    -0.9726935
N           1.6839482     0.4655011    -1.1345362
C           1.7053754     0.2479684    -2.5717399
H           0.7882342     0.6648141    -3.0007675
H           1.7607026    -0.8131630    -2.8644461
H           2.5559430     0.7762438    -3.0127255
C          -0.9571042    -3.9261232    -0.8767129
H          -1.2929639    -4.9556008    -0.9690042
C           0.1465069    -3.6164572    -0.0771206
H           0.6705972    -4.4055656     0.4559372
C           0.5762579    -2.2958142     0.0461105
H           1.4336987    -2.0635021     0.6719379
C          -0.0877478    -1.2614863    -0.6309425
C          -1.1901395    -1.5848291    -1.4300916
H          -1.7169833    -0.7928252    -1.9589442
C          -1.6261838    -2.9062226    -1.5527831
H          -2.4863699    -3.1364926    -2.1761900
C           5.2887589    -0.0820849     1.0385732
H           6.2142479    -0.2061351     1.5931823
C           5.1941102    -0.4923233    -0.2891807
H           6.0494471    -0.9491982    -0.7811658
C           4.0051203    -0.3415740    -1.0051397
H           3.9614520    -0.6967403    -2.0282515
C           2.8701565     0.2434492    -0.4096823
C           2.9835086     0.6669094     0.9331931
H           2.1459378     1.1579721     1.4183916
C           4.1685022     0.4978702     1.6410971
H           4.2202706     0.8395587     2.6720363
30
383_C14H15N_0-3-25-26 (-30,) energy =    -597.2643763
C           0.3834368     0.0586428    -0.5914556
H           0.4108170     0.3868953     0.4490938
H          -0.3214006     0.7276341    -1.1016161
N           1.7039501     0.2597233    -1.1880366
C           1.7586035     0.0291397    -2.6217069
H           0.8029401     0.3303354    -3.0604193
H           1.9370600    -1.0235470    -2.8932468
H           2.5444420     0.6426909    -3.0739272
C          -1.1553101    -3.9912764    -0.8107109
H          -1.5425552    -5.0053092    -0.8641648
C           0.0645458    -3.7377162    -0.1772947
H           0.6279751    -4.5553671     0.2648870
C           0.5628607    -2.4376154    -0.1054418
H           1.5118721    -2.2496553     0.3892860
C          -0.1493721    -1.3681140    -0.6687700
C          -1.3667073    -1.6348177    -1.3046590
H          -1.9283101    -0.8152193    -1.7490084
C          -1.8712761    -2.9356280    -1.3741613
H          -2.8195422    -3.1220789    -1.8717535
C           5.3025658    -0.0119931     1.0497531
H           6.2262495    -0.0680981     1.6179661
C           5.2808373    -0.3068857    -0.3116603
H           6.1950737    -0.6040559    -0.8199527
C           4.0961001    -0.2428831    -1.0449399
H           4.1220591    -0.5048410    -2.0957328
C           2.8798613     0.1377387    -0.4360998
C           2.9167797     0.4322749     0.9466683
H           2.0188938     0.7474112     1.4664539
C           4.1046473     0.3556373     1.6667622
H           4.0897640     0.5954689     2.7272564
30
383_C14H15N_0-3-25-26 (-15,) energy =    -597.2643835
C           0.4208780     0.0390748    -0.9209654
H           0.3282573     0.5560563     0.0398062
H          -0.2200703     0.6046351    -1.6087865
N           1.7894869     0.1688496    -1.3946652
C           1.9942906    -0.0335910    -2.8199080
H           1.0440332     0.1188658    -3.3366082
H           2.3556520    -1.0437292    -3.0673291
H           2.7122421     0.6934364    -3.2176014
C          -1.2327785    -3.9550358    -0.5326422
H          -1.6564177    -4.9507005    -0.4318368
C           0.1503815    -3.7739893    -0.5162589
H           0.8100634    -4.6301619    -0.4007227
C           0.6971860    -2.4952378    -0.6472993
H           1.7747684    -2.3658183    -0.6289444
C          -0.1330168    -1.3793729    -0.7983822
C          -1.5208632    -1.5722588    -0.8203375
H          -2.1792052    -0.7143641    -0.9472720
C          -2.0693708    -2.8471181    -0.6849840
H          -3.1484838    -2.9765100    -0.7062420
C           5.1470939     0.0091152     1.1949773
H           6.0096927    -0.0168032     1.8540417
C           5.2983444    -0.0953192    -0.1864661
H           6.2896527    -0.2060894    -0.6195066
C           4.1949373    -0.0668892    -1.0378328
H           4.3613523    -0.1595866    -2.1040736
C           2.8838016     0.0788691    -0.5294196
C           2.7436502     0.1680941     0.8750614
H           1.7628891     0.2491123     1.3284872
C           3.8560846     0.1361547     1.7106276
H           3.7035881     0.2076229     2.7848639
30
383_C14H15N_0-3-25-26 (0,) energy =    -597.2649478
C           0.5524312     0.1138252    -1.1471167
H           0.4278665     0.7329993    -0.2497742
H          -0.0314896     0.6207168    -1.9252761
N           1.9451494     0.1504266    -1.5511971
C           2.2480447     0.0686902    -2.9694915
H           1.3126333     0.0401605    -3.5316203
H           2.8194215    -0.8358547    -3.2231827
H           2.8242658     0.9391778    -3.3138464
C          -1.2600835    -3.7662079    -0.4414250
H          -1.7246431    -4.7324799    -0.2639994
C           0.1100603    -3.6771855    -0.6843099
H           0.7202570    -4.5766819    -0.6949918
C           0.7074920    -2.4346122    -0.9134433
H           1.7756382    -2.3717641    -1.0961422
C          -0.0578704    -1.2657328    -0.9019218
C          -1.4348190    -1.3644116    -0.6576002
H          -2.0442843    -0.4620141    -0.6488629
C          -2.0331255    -2.6021424    -0.4285139
H          -3.1026127    -2.6595870    -0.2425340
C           5.1086482     0.1180946     1.2643690
H           5.9208456     0.1187711     1.9851592
C           5.3668433     0.1745761    -0.1046915
H           6.3920907     0.2226069    -0.4640230
C           4.3296348     0.1723467    -1.0353420
H           4.5751810     0.2243809    -2.0894375
C           2.9800951     0.1160696    -0.6189213
C           2.7303897     0.0437149     0.7709086
H           1.7167692    -0.0478796     1.1431040
C           3.7796437     0.0493702     1.6856773
H           3.5476551    -0.0106550     2.7462915
30
383_C14H15N_0-3-25-26 (15,) energy =    -597.2654234
C           0.6191622     0.0522500    -1.0841380
H           0.5655447     0.6554530    -0.1692549
H           0.0521353     0.6182462    -1.8350799
N           2.0020086    -0.0149052    -1.5206077
C           2.2571471    -0.0066557    -2.9493763
H           1.3442136    -0.2963179    -3.4748211
H           3.0352053    -0.7317753    -3.2157585
H           2.5714355     0.9817193    -3.3222410
C          -1.4254983    -3.7128098    -0.4017183
H          -1.9458058    -4.6509669    -0.2281459
C          -0.0492839    -3.7028694    -0.6267513
H           0.5093298    -4.6353919    -0.6276242
C           0.6198453    -2.4967784    -0.8515906
H           1.6916193    -2.4902649    -1.0248473
C          -0.0786645    -1.2866690    -0.8532760
C          -1.4620980    -1.3056956    -0.6280549
H          -2.0200123    -0.3705483    -0.6309360
C          -2.1319491    -2.5070266    -0.4027438
H          -3.2054156    -2.5036139    -0.2314699
C           5.2167926     0.2467956     1.2194084
H           6.0420261     0.3151649     1.9219432
C           5.4303969     0.3993248    -0.1503179
H           6.4315105     0.5960187    -0.5266808
C           4.3765765     0.3150512    -1.0583466
H           4.5806206     0.4619434    -2.1127379
C           3.0582978     0.0657259    -0.6163411
C           2.8539374    -0.0970614     0.7728735
H           1.8677595    -0.3356913     1.1553307
C           3.9177660    -0.0026627     1.6658232
H           3.7236398    -0.1385720     2.7270590
30
383_C14H15N_0-3-25-26 (30,) energy =    -597.2657657
C           0.6775429    -0.0600727    -0.8782240
H           0.7274526     0.4012887     0.1137606
H           0.1367048     0.6629711    -1.5082487
N           2.0333742    -0.2125980    -1.3867654
C           2.1616931    -0.1732748    -2.8316306
H           1.2805110    -0.6461961    -3.2743079
H           3.0398250    -0.7404086    -3.1551157
H           2.2431836     0.8512789    -3.2333703
C          -1.6663450    -3.6946138    -0.5818593
H          -2.2590529    -4.6016768    -0.4981613
C          -0.2725679    -3.7601096    -0.5565355
H           0.2250868    -4.7209198    -0.4521034
C           0.4895268    -2.5951977    -0.6673009
H           1.5743948    -2.6454833    -0.6570410
C          -0.1319219    -1.3495235    -0.8045685
C          -1.5311982    -1.2939134    -0.8372154
H          -2.0272086    -0.3319173    -0.9546480
C          -2.2949460    -2.4553954    -0.7231104
H          -3.3798424    -2.3940975    -0.7525847
C           5.4058273     0.4576300     1.0842062
H           6.2715102     0.6233895     1.7185398
C           5.4794285     0.6680438    -0.2921734
H           6.4086433     1.0097237    -0.7419787
C           4.3712494     0.4623205    -1.1132051
H           4.4580873     0.6646925    -2.1747898
C           3.1440018     0.0235518    -0.5732483
C           3.0837353    -0.1985914     0.8208102
H           2.1734841    -0.5828445     1.2701721
C           4.1952368     0.0228935     1.6283349
H           4.1133131    -0.1622566     2.6966626
30
383_C14H15N_0-3-25-26 (45,) energy =    -597.2658211
C           0.8426815    -0.2243465    -0.6888877
H           0.9112755     0.0914611     0.3559909
H           0.3880048     0.6256450    -1.2270353
N           2.1967303    -0.4652234    -1.1865047
C           2.2934895    -0.4264539    -2.6356760
H           1.4532970    -0.9872155    -3.0550526
H           3.2185316    -0.9064028    -2.9674669
H           2.2623168     0.5978068    -3.0479015
C          -1.8278840    -3.6300982    -0.8824688
H          -2.5027525    -4.4812185    -0.9183941
C          -0.4612465    -3.8236189    -0.6704582
H          -0.0686969    -4.8289631    -0.5403000
C           0.4057720    -2.7310557    -0.6265455
H           1.4712623    -2.8785427    -0.4746681
C          -0.0806762    -1.4291156    -0.7948997
C          -1.4505454    -1.2453219    -1.0168633
H          -1.8396843    -0.2390109    -1.1604800
C          -2.3208301    -2.3357783    -1.0560547
H          -3.3815271    -2.1745801    -1.2306496
C           5.5324870     0.7344959     1.1402785
H           6.3887212     1.0292703     1.7398849
C           5.5182098     0.9517511    -0.2357992
H           6.3669992     1.4280253    -0.7206001
C           4.4181513     0.5804654    -1.0112810
H           4.4321368     0.7864593    -2.0755771
C           3.2974764    -0.0351651    -0.4226494
C           3.3303971    -0.2675675     0.9692450
H           2.5041657    -0.7848190     1.4482036
C           4.4253517     0.1212155     1.7334923
H           4.4195394    -0.0749155     2.8028835
30
383_C14H15N_0-3-25-26 (60,) energy =    -597.2652397
C           0.8832176    -0.3722742    -0.5474541
H           0.9712655    -0.1509119     0.5207639
H           0.4940545     0.5489235    -1.0185256
N           2.2255447    -0.6836560    -1.0541619
C           2.2820189    -0.6698881    -2.5089998
H           1.4958751    -1.3249039    -2.8948472
H           3.2472115    -1.0550928    -2.8488846
H           2.1300726     0.3344938    -2.9442771
C          -2.0147846    -3.5586272    -0.9975626
H          -2.7465888    -4.3559861    -1.0967449
C          -0.6851637    -3.8583827    -0.6912767
H          -0.3792465    -4.8920939    -0.5510482
C           0.2547491    -2.8355602    -0.5647711
H           1.2923918    -3.0652569    -0.3394653
C          -0.1190174    -1.4976027    -0.7449541
C          -1.4509945    -1.2079801    -1.0615657
H          -1.7519261    -0.1734001    -1.2145422
C          -2.3955721    -2.2290301    -1.1827228
H          -3.4257192    -1.9854265    -1.4296693
C           5.5144897     0.9338038     1.0851618
H           6.3602837     1.3308478     1.6391298
C           5.3612792     1.2138310    -0.2705956
H           6.0875951     1.8398933    -0.7831208
C           4.2731946     0.7093786    -0.9878069
H           4.1721481     0.9590378    -2.0382977
C           3.3145733    -0.1009238    -0.3575045
C           3.4924575    -0.3980962     1.0085286
H           2.7877490    -1.0614678     1.5026871
C           4.5677001     0.1231613     1.7196109
H           4.6795007    -0.1235472     2.7724864
30
383_C14H15N_0-3-25-26 (75,) energy =    -597.2638125
C           0.9392617    -0.4351460    -0.4869688
H           1.0238003    -0.2444326     0.5888257
H           0.6066788     0.5153420    -0.9445906
N           2.2757667    -0.8132536    -0.9714451
C           2.3344909    -0.8485635    -2.4290855
H           1.6032672    -1.5760720    -2.7927131
H           3.3298960    -1.1673384    -2.7497350
H           2.1046647     0.1224320    -2.9046707
C          -2.1028729    -3.4627282    -1.0588125
H          -2.8705126    -4.2209547    -1.1892162
C          -0.8126187    -3.8288521    -0.6669822
H          -0.5737668    -4.8747828    -0.4913838
C           0.1730187    -2.8566898    -0.4995476
H           1.1809432    -3.1379729    -0.2075987
C          -0.1138637    -1.5036570    -0.7242798
C          -1.4061188    -1.1481191    -1.1257245
H          -1.6391779    -0.1018539    -1.3131158
C          -2.3973730    -2.1183964    -1.2879088
H          -3.3958233    -1.8236039    -1.6005594
C           5.4981907     1.0856244     1.0389222
H           6.3280968     1.5532807     1.5613075
C           5.1849391     1.4602977    -0.2662530
H           5.7688561     2.2284972    -0.7671788
C           4.1171621     0.8630912    -0.9418891
H           3.8862828     1.1769221    -1.9546587
C           3.3477987    -0.1306975    -0.3192865
C           3.6887745    -0.5210844     0.9876323
H           3.1219998    -1.3200177     1.4584086
C           4.7399982     0.0906445     1.6638626
H           4.9845542    -0.2269782     2.6743277
30
383_C14H15N_0-3-25-26 (90,) energy =    -597.2621506
C           0.9693641    -0.4633573    -0.4914255
H           1.0266798    -0.2466859     0.5822493
H           0.6875085     0.4863737    -0.9848154
N           2.3055055    -0.9102557    -0.9134499
C           2.4107325    -1.0216652    -2.3672648
H           1.6968969    -1.7732020    -2.7170758
H           3.4189146    -1.3485673    -2.6357432
H           2.1918964    -0.0802957    -2.9036606
C          -2.1688831    -3.3877536    -1.0822013
H          -2.9609978    -4.1195131    -1.2175197
C          -0.9107594    -3.7897713    -0.6261079
H          -0.7216384    -4.8373043    -0.4051373
C           0.1059735    -2.8514511    -0.4518938
H           1.0893119    -3.1601338    -0.1086118
C          -0.1166153    -1.4971501    -0.7344505
C          -1.3768756    -1.1059713    -1.1994296
H          -1.5598808    -0.0587174    -1.4314557
C          -2.3995373    -2.0419728    -1.3684538
H          -3.3724199    -1.7196389    -1.7306869
C           5.4699441     1.1662403     1.0175188
H           6.2843150     1.6818578     1.5191644
C           4.9848108     1.6375284    -0.2025665
H           5.4184031     2.5263237    -0.6542327
C           3.9380575     0.9771865    -0.8497687
H           3.5687194     1.3590308    -1.7969066
C           3.3665325    -0.1720172    -0.2853669
C           3.8738518    -0.6502861     0.9312149
H           3.4475854    -1.5579181     1.3495308
C           4.9073616     0.0195022     1.5837325
H           5.2876006    -0.3656104     2.5264255
30
383_C14H15N_0-3-25-26 (105,) energy =    -597.2620061
C           0.7899879     0.1582159    -1.7487599
H           0.6556206     1.0642085    -1.1496237
H           0.3807226     0.3671264    -2.7453126
N           2.2446217    -0.0482368    -1.9147838
C           2.5710593    -1.1426824    -2.8217050
H           2.1061943    -0.9415485    -3.7944643
H           2.2273954    -2.1359001    -2.4888256
H           3.6550468    -1.1805907    -2.9629248
C          -1.3704125    -3.1491873     0.0408896
H          -1.9093886    -3.9795841     0.4894487
C          -0.7091555    -2.2221371     0.8497617
H          -0.7338224    -2.3282238     1.9312777
C          -0.0216512    -1.1534042     0.2742066
H           0.4859573    -0.4334062     0.9105940
C           0.0193299    -0.9927462    -1.1187555
C          -0.6525276    -1.9274013    -1.9175926
H          -0.6436224    -1.8089013    -2.9993488
C          -1.3421150    -2.9984951    -1.3460886
H          -1.8605011    -3.7104362    -1.9833227
C           4.5101247     0.2913929     1.6582444
H           5.0920770     0.3948748     2.5699089
C           3.9684625     1.4192865     1.0342919
H           4.1326053     2.4074094     1.4568283
C           3.2372254     1.2882645    -0.1434538
H           2.8417261     2.1658571    -0.6478171
C           3.0176150     0.0242707    -0.7176186
C           3.5470214    -1.1047191    -0.0737819
H           3.3751044    -2.0935569    -0.4864376
C           4.3000374    -0.9665926     1.0947520
H           4.7102008    -1.8527460     1.5728950
30
383_C14H15N_0-3-25-26 (120,) energy =    -597.2635558
C           0.8266109     0.1218257    -1.7685406
H           0.7001360     1.0421941    -1.1923272
H           0.4570153     0.3254876    -2.7813032
N           2.2734236    -0.1480018    -1.8778015
C           2.5886237    -1.2716447    -2.7482784
H           2.0999255    -1.1109042    -3.7161126
H           2.2579320    -2.2515479    -2.3664386