30
383_C14H15N_14-0-3-25 (-165,) energy =    -597.2643247
C           0.9729405    -0.5622749    -0.2510567
H           1.1078217    -0.5809769     0.8334594
H           0.6124062     0.4523163    -0.5020348
N           2.2831723    -0.8144095    -0.8786335
C           2.2159253    -0.7924603    -2.3352194
H           1.4435282    -1.4900749    -2.6649619
H           3.1725070    -1.1183269    -2.7524811
H           1.9738643     0.2037386    -2.7481104
C          -2.0907393    -3.4460560    -1.2642983
H          -2.8637322    -4.1708140    -1.5057721
C          -0.8332471    -3.8773759    -0.8321775
H          -0.6262984    -4.9401865    -0.7359885
C           0.1575902    -2.9478729    -0.5206254
H           1.1391623    -3.2808619    -0.1936450
C          -0.0892862    -1.5726794    -0.6409534
C          -1.3482320    -1.1517848    -1.0807483
H          -1.5501066    -0.0877503    -1.1838441
C          -2.3459526    -2.0805489    -1.3875350
H          -3.3187748    -1.7352356    -1.7277689
C           5.5693386     1.1891449     0.9279741
H           6.4128308     1.6871545     1.3974147
C           5.3198314     1.3460375    -0.4327075
H           5.9681507     1.9762190    -1.0366311
C           4.2335871     0.7113817    -1.0414056
H           4.0611449     0.8715173    -2.0992435
C           3.3722947    -0.1121170    -0.2961431
C           3.6451765    -0.2756379     1.0776556
H           3.0241236    -0.9413489     1.6698568
C           4.7195327     0.3704948     1.6783684
H           4.9046717     0.2194250     2.7389526
30
383_C14H15N_14-0-3-25 (-150,) energy =    -597.2654814
C           0.8823497    -0.3789777    -0.4504595
H           0.9910403    -0.2338982     0.6273080
H           0.4689543     0.5676332    -0.8442563
N           2.2129928    -0.6325360    -1.0156807
C           2.2181331    -0.5936037    -2.4706375
H           1.3974827    -1.2139279    -2.8396205
H           3.1556782    -1.0057546    -2.8537822
H           2.0880078     0.4243566    -2.8800779
C          -1.9861806    -3.5609399    -1.0778029
H          -2.7102546    -4.3585220    -1.2216878
C          -0.6624416    -3.8639730    -0.7485478
H          -0.3538975    -4.9001181    -0.6348384
C           0.2671421    -2.8409832    -0.5644969
H           1.3000660    -3.0736066    -0.3205163
C          -0.1106084    -1.4993539    -0.7094157
C          -1.4359683    -1.2063386    -1.0481909
H          -1.7395522    -0.1688489    -1.1729791
C          -2.3708411    -2.2283013    -1.2273578
H          -3.3961649    -1.9821742    -1.4911496
C           5.5715331     0.9656211     1.0337993
H           6.4337327     1.3605824     1.5632372
C           5.4325514     1.1543518    -0.3388575
H           6.1876086     1.7074839    -0.8921756
C           4.3231290     0.6534259    -1.0243484
H           4.2384216     0.8379368    -2.0890342
C           3.3230237    -0.0665279    -0.3464462
C           3.4835455    -0.2659774     1.0409901
H           2.7540989    -0.8578718     1.5861375
C           4.5838014     0.2495065     1.7167876
H           4.6786294     0.0743370     2.7855890
30
383_C14H15N_14-0-3-25 (-135,) energy =    -597.2658308
C           0.8182947    -0.2243972    -0.6432400
H           0.8994368     0.0697477     0.4065970
H           0.3539168     0.6353270    -1.1575302
N           2.1660174    -0.4510557    -1.1645528
C           2.2386533    -0.4029952    -2.6149023
H           1.3885150    -0.9560124    -3.0239519
H           3.1550709    -0.8858696    -2.9659077
H           2.2066655     0.6244196    -3.0189870
C          -1.8441534    -3.6333114    -0.8807381
H          -2.5166367    -4.4857644    -0.9279284
C          -0.4775731    -3.8261966    -0.6670112
H          -0.0827335    -4.8318593    -0.5466543
C           0.3863591    -2.7320793    -0.6085863
H           1.4517443    -2.8793226    -0.4554763
C          -0.1027254    -1.4293353    -0.7640868
C          -1.4723192    -1.2462896    -0.9875605
H          -1.8635073    -0.2394066    -1.1210369
C          -2.3398665    -2.3384631    -1.0412585
H          -3.4004726    -2.1779340    -1.2169745
C           5.5355226     0.7547922     1.1113998
H           6.4003368     1.0519297     1.6973372
C           5.5045668     0.9591786    -0.2662965
H           6.3487586     1.4275551    -0.7665895
C           4.3935632     0.5850110    -1.0244689
H           4.3957409     0.7816488    -2.0904940
C           3.2774807    -0.0212151    -0.4168657
C           3.3271426    -0.2393597     0.9771450
H           2.5060924    -0.7487838     1.4727873
C           4.4334163     0.1515237     1.7237496
H           4.4398480    -0.0344804     2.7949639
30
383_C14H15N_14-0-3-25 (-120,) energy =    -597.2658041
C           0.7682077    -0.1008312    -0.8134480
H           0.8153640     0.3201193     0.1959833
H           0.2613351     0.6625026    -1.4253605
N           2.1300754    -0.2854778    -1.3016671
C           2.2694556    -0.2278762    -2.7451828
H           1.4047361    -0.7204374    -3.1990242
H           3.1658494    -0.7673501    -3.0652247
H           2.3248020     0.8026320    -3.1372262
C          -1.6849526    -3.6710255    -0.6850714
H          -2.3045901    -4.5628334    -0.6425028
C          -0.2970787    -3.7735170    -0.5763083
H           0.1683753    -4.7474946    -0.4479867
C           0.4998547    -2.6287442    -0.6342226
H           1.5807691    -2.7071697    -0.5617197
C          -0.0798240    -1.3661891    -0.8010927
C          -1.4723006    -1.2737175    -0.9181299
H          -1.9350923    -0.2985688    -1.0595091
C          -2.2715680    -2.4155455    -0.8569502
H          -3.3507305    -2.3257636    -0.9516314
C           5.4615936     0.5240327     1.1856888
H           6.3168368     0.7231509     1.8246407
C           5.5305045     0.7512004    -0.1878431
H           6.4445745     1.1395815    -0.6306645
C           4.4345174     0.5032412    -1.0145060
H           4.5172302     0.7173798    -2.0740867
C           3.2280748     0.0041824    -0.4828951
C           3.1740601    -0.2371474     0.9078415
H           2.2796781    -0.6671949     1.3481132
C           4.2707638     0.0278253     1.7219823
H           4.1954831    -0.1727249     2.7879849
30
383_C14H15N_14-0-3-25 (-105,) energy =    -597.2656985
C           0.6732692    -0.0172544    -1.0552523
H           0.6565793     0.5357147    -0.1084319
H           0.1381666     0.6206289    -1.7732767
N           2.0545533    -0.1499758    -1.4919422
C           2.2845740    -0.0902101    -2.9232928
H           1.4174794    -0.5131784    -3.4378238
H           3.1572591    -0.6910307    -3.1989187
H           2.4415819     0.9361226    -3.2966096
C          -1.5620433    -3.6977960    -0.5406359
H          -2.1289606    -4.6150568    -0.4054860
C          -0.1717301    -3.7387345    -0.6439122
H           0.3506633    -4.6904462    -0.5885354
C           0.5571697    -2.5596377    -0.8195809
H           1.6392549    -2.5907680    -0.9043729
C          -0.0950884    -1.3257037    -0.8940318
C          -1.4927546    -1.2940501    -0.7946748
H          -2.0144709    -0.3404896    -0.8589588
C          -2.2222286    -2.4685532    -0.6167957
H          -3.3059610    -2.4260346    -0.5433869
C           5.2630910     0.3542386     1.2218231
H           6.0863446     0.4793265     1.9189094
C           5.4429076     0.5811419    -0.1422643
H           6.4136824     0.8950221    -0.5185273
C           4.3901247     0.4271068    -1.0432549
H           4.5619351     0.6387511    -2.0926086
C           3.1122863     0.0269381    -0.5985923
C           2.9434238    -0.2129444     0.7835798
H           1.9893377    -0.5673772     1.1597469
C           4.0020873    -0.0435893     1.6711564
H           3.8378473    -0.2404894     2.7278402
30
383_C14H15N_14-0-3-25 (-90,) energy =    -597.2654478
C           0.6628215    -0.0036365    -1.3231012
H           0.5278330     0.7170946    -0.5044876
H           0.1455972     0.4335741    -2.1863025
N           2.0752640    -0.1017392    -1.6577101
C           2.4530064     0.0508344    -3.0513120
H           1.6071523    -0.2308129    -3.6824947
H           3.2873194    -0.6135752    -3.3035970
H           2.7495148     1.0812501    -3.3095361
C          -1.3890156    -3.6913472    -0.3198718
H          -1.9132152    -4.6106881    -0.0728429
C          -0.0916459    -3.7370205    -0.8298580
H           0.4009857    -4.6942989    -0.9802979
C           0.5833525    -2.5554290    -1.1464682
H           1.5971651    -2.5884537    -1.5339393
C          -0.0293824    -1.3146381    -0.9554090
C          -1.3312093    -1.2770319    -0.4372255
H          -1.8182989    -0.3163107    -0.2777530
C          -2.0084681    -2.4543434    -0.1231653
H          -3.0173905    -2.4070816     0.2787447
C           5.0054575     0.2689201     1.3746990
H           5.7569413     0.3617644     2.1531722
C           5.3425960     0.4494942     0.0337446
H           6.3656796     0.6925573    -0.2432869
C           4.3840536     0.3345006    -0.9717533
H           4.6832322     0.5014464    -1.9999770
C           3.0426384     0.0248159    -0.6592334
C           2.7124209    -0.1635970     0.7016172
H           1.7028728    -0.4403081     0.9833758
C           3.6813805    -0.0385483     1.6932722
H           3.3929831    -0.1942048     2.7300596
30
383_C14H15N_14-0-3-25 (-75,) energy =    -597.2649216
C           0.6089875     0.0486887    -1.4632123
H           0.3649731     0.8292885    -0.7268197
H           0.1016918     0.3479664    -2.3873495
N           2.0360441     0.0563689    -1.7354263
C           2.4965814     0.1593273    -3.1082566
H           1.6399952     0.0818055    -3.7805093
H           3.1956113    -0.6485846    -3.3651364
H           3.0026279     1.1162918    -3.3089680
C          -1.1769927    -3.6921957    -0.1865717
H          -1.6364351    -4.6263600     0.1252143
C           0.0410490    -3.7004238    -0.8678602
H           0.5357044    -4.6431373    -1.0874232
C           0.6324376    -2.5003522    -1.2665660
H           1.5869281    -2.5087756    -1.7848579
C           0.0170684    -1.2765778    -0.9871610
C          -1.2015421    -1.2766580    -0.2966448
H          -1.6880132    -0.3306034    -0.0647801
C          -1.7976552    -2.4742869     0.0987966
H          -2.7427344    -2.4559831     0.6355229
C           4.8565423     0.1098614     1.4202120
H           5.5806577     0.1268764     2.2293676
C           5.2680724     0.2089716     0.0915094
H           6.3246745     0.3084633    -0.1456670
C           4.3452338     0.1876549    -0.9524288
H           4.7065436     0.2768832    -1.9701334
C           2.9617882     0.0623062    -0.6939800
C           2.5554672    -0.0427158     0.6556485
H           1.5087837    -0.1691338     0.9039565
C           3.4920391    -0.0165911     1.6853587
H           3.1428059    -0.1028334     2.7115099
30
383_C14H15N_14-0-3-25 (-60,) energy =    -597.2637201
C           0.4995596     0.0936881    -1.5346244
H           0.1525069     0.8793251    -0.8464924
H          -0.0065489     0.2961628    -2.4847426
N           1.9270066     0.2527121    -1.7750378
C           2.4069105     0.2222723    -3.1459117
H           1.5692842     0.4032139    -3.8226862
H           2.8678008    -0.7392717    -3.4256662
H           3.1501754     1.0110223    -3.3174139
C          -0.9544236    -3.7274153    -0.0855385
H          -1.3318737    -4.6825502     0.2696751
C           0.2364200    -3.6672324    -0.8112683
H           0.7914789    -4.5777024    -1.0219987
C           0.7227192    -2.4404810    -1.2657257
H           1.6567926    -2.4003478    -1.8185379
C           0.0289651    -1.2557883    -0.9977145
C          -1.1608516    -1.3250727    -0.2627362
H          -1.7070502    -0.4101609    -0.0393143
C          -1.6532958    -2.5503038     0.1878142
H          -2.5778535    -2.5841923     0.7584373
C           4.7239170    -0.0850071     1.3876095
H           5.4414154    -0.1613758     2.1992566
C           5.1451699    -0.0951631     0.0590350
H           6.2032998    -0.1805198    -0.1767652
C           4.2295806    -0.0020499    -0.9884240
H           4.6005505    -0.0187531    -2.0062559
C           2.8455151     0.1111092    -0.7326465
C           2.4289961     0.1133925     0.6178340
H           1.3765467     0.1795141     0.8653982
C           3.3564947     0.0184807     1.6506638
H           2.9987907     0.0228952     2.6774689
30
383_C14H15N_14-0-3-25 (-45,) energy =    -597.2614614
C           0.4827864     0.0912562    -1.6744807
H          -0.0027039     0.8975576    -1.1027302
H           0.0560240     0.1478519    -2.6811772
N           1.9142030     0.3755602    -1.8090538
C           2.4574887     0.4080957    -3.1574845
H           1.6836567     0.7534876    -3.8472401
H           2.8232870    -0.5694895    -3.5163669
H           3.2896749     1.1183494    -3.2128080
C          -0.7662172    -3.6878158     0.0438474
H          -1.0920746    -4.6350635     0.4651154
C           0.3553745    -3.6368426    -0.7870976
H           0.9060349    -4.5459717    -1.0144143
C           0.7750151    -2.4214249    -1.3266081
H           1.6546340    -2.3896499    -1.9637424
C           0.0861304    -1.2364107    -1.0396485
C          -1.0331151    -1.2977368    -0.2023021
H          -1.5750815    -0.3839006     0.0344167
C          -1.4608398    -2.5134314     0.3345418
H          -2.3312534    -2.5401991     0.9850472
C           4.5680479    -0.2538831     1.4330476
H           5.2476410    -0.4022979     2.2671110
C           5.0295803    -0.3077985     0.1195353
H           6.0803381    -0.5027034    -0.0815778
C           4.1618772    -0.1230584    -0.9574348
H           4.5598134    -0.1867039    -1.9633551
C           2.7908033     0.1301313    -0.7450601
C           2.3348325     0.1850725     0.5906032
H           1.2894594     0.3818402     0.7979542
C           3.2108086    -0.0065353     1.6535701
H           2.8241549     0.0425907     2.6686274
30
383_C14H15N_14-0-3-25 (-30,) energy =    -597.2585986
C           0.4757788     0.0144876    -1.8212922
H          -0.1488461     0.8302932    -1.4234778
H           0.1792437    -0.1020172    -2.8698461
N           1.8905719     0.4232722    -1.8287830
C           2.4684158     0.6475441    -3.1439148
H           1.7281342     1.1380876    -3.7826721
H           2.7998916    -0.2745879    -3.6536534
H           3.3290003     1.3184684    -3.0636437
C          -0.6861297    -3.6379575     0.1962771
H          -0.9906637    -4.5567271     0.6903285
C           0.4282231    -3.6295951    -0.6468662
H           0.9934994    -4.5433268    -0.8108116
C           0.8195997    -2.4515893    -1.2803002
H           1.6921458    -2.4520944    -1.9282626
C           0.1102918    -1.2601247    -1.0769587
C          -1.0019250    -1.2793162    -0.2291550
H          -1.5610127    -0.3610021    -0.0604406
C          -1.4017274    -2.4589742     0.4026892
H          -2.2678959    -2.4530047     1.0592853
C           4.4937136    -0.3863061     1.4134509
H           5.1603462    -0.5788027     2.2490657
C           4.9665572    -0.4195315     0.1033212
H           6.0120563    -0.6449031    -0.0934632
C           4.1140984    -0.1780655    -0.9752720
H           4.5149318    -0.2340473    -1.9811444
C           2.7519934     0.1165441    -0.7662472
C           2.2863614     0.1572855     0.5657736
H           1.2484365     0.4004065     0.7638226
C           3.1434902    -0.0974822     1.6305121
H           2.7514039    -0.0578175     2.6438814
30
383_C14H15N_14-0-3-25 (-15,) energy =    -597.2565130
C           0.5098365    -0.1170986    -1.9747729
H          -0.2194096     0.6885346    -1.7944937
H           0.3855361    -0.4031321    -3.0289308
N           1.8806002     0.4099335    -1.8409471
C           2.4503867     0.8742801    -3.0932454
H           1.6915333     1.4394157    -3.6457594
H           2.8083967     0.0617555    -3.7509919
H           3.2868213     1.5502011    -2.8957064
C          -0.7095278    -3.5719536     0.3281278
H          -1.0273850    -4.4441782     0.8930859
C           0.4275486    -3.6365006    -0.4820029
H           0.9965730    -4.5600188    -0.5491247
C           0.8352540    -2.5193201    -1.2078015
H           1.7236708    -2.5753557    -1.8314236
C           0.1202921    -1.3157641    -1.1310551
C          -1.0163512    -1.2628481    -0.3175039
H          -1.5823155    -0.3360054    -0.2506224
C          -1.4321759    -2.3821567     0.4074574
H          -2.3178165    -2.3209819     1.0345243
C           4.5039446    -0.4700665     1.3660877
H           5.1775260    -0.6794669     2.1920951
C           4.9772036    -0.4264085     0.0560438
H           6.0290430    -0.6096188    -0.1506110
C           4.1144781    -0.1639086    -1.0091247
H           4.5102362    -0.1637337    -2.0192645
C           2.7446245     0.0803032    -0.7863691
C           2.2800239     0.0487363     0.5456007
H           1.2372197     0.2596050     0.7536632
C           3.1458745    -0.2332728     1.5968449
H           2.7552766    -0.2503088     2.6114373
30
383_C14H15N_14-0-3-25 (0,) energy =    -597.2556477
C           0.5516430    -0.1076825    -2.0888623
H          -0.2354048     0.6610964    -2.0784027
H           0.5783213    -0.4974564    -3.1199552
N           1.8556126     0.5388720    -1.8363757
C           2.4014190     1.1463170    -3.0356772
H           1.6144893     1.7266139    -3.5324696
H           2.7878522     0.4158758    -3.7703032
H           3.2092069     1.8343189    -2.7730947
C          -0.7395402    -3.4134928     0.3834097
H          -1.0739886    -4.2494891     0.9919151
C           0.4019447    -3.5376320    -0.4133003
H           0.9580886    -4.4712460    -0.4263180
C           0.8293286    -2.4672882    -1.1962266
H           1.7197483    -2.5699645    -1.8112152
C           0.1304294    -1.2518882    -1.1912192
C          -1.0127606    -1.1403694    -0.3921143
H          -1.5686444    -0.2052437    -0.3834965
C          -1.4476757    -2.2122151     0.3908859
H          -2.3384264    -2.1064777     1.0046067
C           4.5399767    -0.4705436     1.2836649
H           5.2291312    -0.7103110     2.0884319
C           4.9947449    -0.3479892    -0.0279181
H           6.0468450    -0.5000216    -0.2571612
C           4.1106498    -0.0462214    -1.0651812
H           4.4890635     0.0162921    -2.0803460
C           2.7411416     0.1619402    -0.8106486
C           2.2964980     0.0532898     0.5232283
H           1.2537903     0.2396050     0.7529667
C           3.1816221    -0.2707912     1.5462468
H           2.8071841    -0.3474023     2.5641549
30
383_C14H15N_14-0-3-25 (15,) energy =    -597.2565130
C           1.9173518    -2.5538538    -1.6620949
H           1.7174573    -2.7199287    -2.7302608
H           2.2235519    -3.5319710    -1.2585141
N           3.0452191    -1.6067682    -1.5877573
C           3.8590078    -1.5754953    -2.7899580
H           4.0191442    -2.6005183    -3.1423792
H           4.8394354    -1.1459874    -2.5668186
H           3.4093795    -1.0017357    -3.6203957
C          -1.8972469    -1.5108481     0.0951260
H          -2.8636254    -1.2592956     0.5238779
C          -1.2475793    -2.6865178     0.4691334
H          -1.7047859    -3.3579605     1.1912392
C          -0.0034556    -3.0026805    -0.0818021
H           0.5004609    -3.9201904     0.2149626
C           0.6061731    -2.1548694    -1.0124758
C          -0.0592903    -0.9786720    -1.3857221
H           0.4031168    -0.3064788    -2.1038202
C          -1.2975849    -0.6565433    -0.8343983
H          -1.7973146     0.2618855    -1.1309427
C           3.2804962     1.6635259     1.0937544
H           3.3549301     2.4958812     1.7876475
C           3.6904841     1.8033366    -0.2308119
H           4.0835959     2.7541276    -0.5830952
C           3.5910772     0.7387543    -1.1277692
H           3.8939493     0.8890451    -2.1586392
C           3.0887117    -0.5109237    -0.7133955
C           2.6912001    -0.6449724     0.6338230
H           2.3262458    -1.6011053     0.9913384
C           2.7768442     0.4290282     1.5133315
H           2.4616107     0.2921020     2.5449025
30
383_C14H15N_14-0-3-25 (30,) energy =    -597.2585985
C           2.0005144    -2.6152843    -1.5124636
H           1.8593084    -3.0032197    -2.5276291
H           2.3492480    -3.4706590    -0.9117261
N           3.0590940    -1.5955307    -1.5968253
C           3.6871964    -1.4526567    -2.9000559
H           3.7962960    -2.4406037    -3.3567434
H           4.6903994    -1.0304676    -2.7868734
H           3.1245843    -0.8132100    -3.6032991
C          -1.9308076    -1.5078908    -0.0704250
H          -2.9245929    -1.2425158     0.2801917
C          -1.2961177    -2.6502315     0.4162934
H          -1.7922996    -3.2810096     1.1493176
C          -0.0160467    -2.9830752    -0.0323933
H           0.4765418    -3.8729186     0.3547334
C           0.6447188    -2.1867237    -0.9733533
C          -0.0041601    -1.0433304    -1.4587376
H           0.4994102    -0.4083125    -2.1828429
C          -1.2787977    -0.7038185    -1.0090731
H          -1.7649786     0.1899928    -1.3912369
C           3.3375913     1.6196377     1.1468284
H           3.4208298     2.4370287     1.8572149
C           3.6886981     1.7989878    -0.1894909
H           4.0462829     2.7664894    -0.5339523
C           3.5792883     0.7541942    -1.1085772
H           3.8423716     0.9383058    -2.1441726
C           3.1191395    -0.5155518    -0.7057899
C           2.7761756    -0.6884981     0.6526745
H           2.4378029    -1.6577418     1.0013679
C           2.8782408     0.3643341     1.5551145
H           2.6055294     0.1960285     2.5941173
30
383_C14H15N_14-0-3-25 (45,) energy =    -597.2614614
C           2.0518100    -2.6210276    -1.3276727
H           1.9889749    -3.2021191    -2.2534967
H           2.4410671    -3.3173107    -0.5684629
N           3.0294353    -1.5556494    -1.5665838
C           3.4689911    -1.3576411    -2.9384629
H           3.4469265    -2.3156143    -3.4635069
H           4.5027791    -0.9956439    -2.9557711
H           2.8508736    -0.6419173    -3.5076310
C          -1.9959533    -1.5568772    -0.1974701
H          -3.0160156    -1.3028975     0.0780267
C          -1.3672404    -2.6617207     0.3772110
H          -1.8947816    -3.2734827     1.1044933
C          -0.0537037    -2.9788393     0.0263306
H           0.4337130    -3.8378318     0.4839482
C           0.6477599    -2.2052213    -0.9048169
C           0.0066631    -1.0995225    -1.4771432
H           0.5417310    -0.4797463    -2.1914628
C          -1.3028500    -0.7750660    -1.1245330
H          -1.7828107     0.0908834    -1.5730729
C           3.4912668     1.6271861     1.1913840
H           3.6200981     2.4368423     1.9037011
C           3.8118712     1.8031438    -0.1530435
H           4.1936757     2.7597556    -0.5018191
C           3.6445305     0.7694130    -1.0751639
H           3.8932542     0.9529900    -2.1137767
C           3.1505027    -0.4876192    -0.6691513
C           2.8313030    -0.6551701     0.6964862
H           2.4531646    -1.6068994     1.0510850
C           2.9983454     0.3863305     1.6027502
H           2.7419181     0.2210772     2.6463938
30
383_C14H15N_14-0-3-25 (60,) energy =    -597.2637199
C           2.0729603    -2.5715883    -1.1965629
H           2.0940633    -3.2765916    -2.0346017
H           2.5014246    -3.1191240    -0.3435267
N           2.9495065    -1.4648662    -1.5547053
C           3.3076927    -1.2895961    -2.9517063
H           3.1198894    -2.2215270    -3.4889048
H           4.3745831    -1.0550721    -3.0548281
H           2.7384141    -0.4885703    -3.4511494
C          -2.0923662    -1.7325605    -0.3251376
H          -3.1399426    -1.5361257    -0.1132123
C          -1.4583292    -2.8434034     0.2341424
H          -2.0099530    -3.5164393     0.8855278
C          -0.1109457    -3.0870422    -0.0341357
H           0.3795260    -3.9509187     0.4113546
C           0.6208993    -2.2330678    -0.8682169
C          -0.0229504    -1.1221301    -1.4232109
H           0.5362141    -0.4401156    -2.0571658
C          -1.3688956    -0.8716719    -1.1521345
H          -1.8518939     0.0001646    -1.5858256
C           3.7213220     1.6762648     1.1796382
H           3.9286186     2.4772696     1.8830729
C           4.0635776     1.8015929    -0.1657689
H           4.5438272     2.7090717    -0.5240768
C           3.7970425     0.7793159    -1.0755434
H           4.0745327     0.9214387    -2.1132137
C           3.1755887    -0.4181648    -0.6583837
C           2.8264969    -0.5314751     0.7062416
H           2.3308558    -1.4226213     1.0715670
C           3.0991131     0.4992843     1.6004327
H           2.8153370     0.3763692     2.6428644
30
383_C14H15N_14-0-3-25 (75,) energy =    -597.2649261
C           2.0558467    -2.4538355    -1.1412882
H           2.1521153    -3.2064250    -1.9320274
H           2.5269540    -2.8987431    -0.2517996
N           2.8083615    -1.2859584    -1.5661931
C           3.2763400    -1.2027033    -2.9377786
H           2.8599852    -2.0340414    -3.5097860
H           4.3736956    -1.2555255    -3.0083016
H           2.9547172    -0.2707104    -3.4230778
C          -2.1834406    -1.9474090    -0.3762953
H          -3.2480405    -1.8336748    -0.1901461
C          -1.4826384    -3.0177503     0.1833897
H          -1.9995767    -3.7412222     0.8086555
C          -0.1145670    -3.1563099    -0.0516761
H           0.4275490    -3.9893794     0.3928002
C           0.5718852    -2.2348971    -0.8525940
C          -0.1371534    -1.1651738    -1.4068278
H           0.3912389    -0.4359758    -2.0140516
C          -1.5052930    -1.0207371    -1.1695276
H          -2.0409083    -0.1799053    -1.6027983
C           3.9477672     1.6999356     1.2092179
H           4.2435146     2.4647388     1.9212279
C           4.3721156     1.7577201    -0.1179206
H           5.0098284     2.5731115    -0.4511294
C           3.9970346     0.7805205    -1.0377967
H           4.3550018     0.8592937    -2.0575305
C           3.1716854    -0.2993889    -0.6516376
C           2.7421345    -0.3454393     0.6940684
H           2.0850075    -1.1373884     1.0319996
C           3.1295900     0.6386092     1.5994722
H           2.7773280     0.5718452     2.6260421
30
383_C14H15N_14-0-3-25 (90,) energy =    -597.2654478
C           2.0268057    -2.3553329    -1.0223798
H           2.2314035    -3.1689371    -1.7294883
H           2.4931076    -2.6647069    -0.0765356
N           2.6867033    -1.1590655    -1.5224153
C           3.1512139    -1.1667866    -2.8980267
H           2.5496225    -1.8742251    -3.4731791
H           4.2114026    -1.4545832    -2.9957270
H           3.0260190    -0.1793759    -3.3568424
C          -2.2733224    -2.1592351    -0.4861472
H          -3.3513458    -2.1220776    -0.3538755
C          -1.5428882    -3.2476743    -0.0020750
H          -2.0508188    -4.0612386     0.5095695
C          -0.1595708    -3.2902975    -0.1695379
H           0.4037953    -4.1396849     0.2136857
C           0.5157323    -2.2516829    -0.8251353
C          -0.2217906    -1.1660179    -1.3036931
H           0.2990626    -0.3522963    -1.7992885
C          -1.6078755    -1.1190939    -1.1347016
H          -2.1664854    -0.2650020    -1.5091107
C           4.1643548     1.7386290     1.1867516
H           4.5411979     2.4829151     1.8820227
C           4.6271517     1.6922870    -0.1278266
H           5.3785164     2.4017159    -0.4664704
C           4.1506086     0.7388763    -1.0261549
H           4.5503350     0.7246608    -2.0334458
C           3.1784577    -0.2049405    -0.6298602
C           2.7103225    -0.1452068     0.7019447
H           1.9364339    -0.8260875     1.0375710
C           3.2021789     0.8097248     1.5874411
H           2.8165806     0.8294413     2.6039322
30
383_C14H15N_14-0-3-25 (105,) energy =    -597.2656983
C           1.9933018    -2.2891365    -0.7641470
H           2.3463522    -3.1870536    -1.2912774
H           2.3616588    -2.3932158     0.2634910
N           2.6186508    -1.1217443    -1.3661118
C           2.9321569    -1.2177676    -2.7795497
H           2.1855971    -1.8529457    -3.2640171
H           3.9300864    -1.6453842    -2.9760919
H           2.8838127    -0.2318523    -3.2529814
C          -2.3423238    -2.3454994    -0.6852273
H          -3.4285261    -2.3664827    -0.6577940
C          -1.6110162    -3.5154864    -0.4640000
H          -2.1265360    -4.4517750    -0.2658047
C          -0.2179156    -3.4860312    -0.5044312
H           0.3451887    -4.4027860    -0.3368668
C           0.4674277    -2.2905508    -0.7603075
C          -0.2716675    -1.1253570    -0.9832342
H           0.2537785    -0.1979055    -1.1901658
C          -1.6681708    -1.1526231    -0.9458261
H          -2.2284886    -0.2378654    -1.1218047
C           4.3834941     1.8907299     1.0260959
H           4.8327737     2.6659197     1.6397241
C           4.8091603     1.6837419    -0.2856172
H           5.6049494     2.2962092    -0.7028821
C           4.2409316     0.6878873    -1.0788012
H           4.6170334     0.5394072    -2.0847659
C           3.2096980    -0.1339792    -0.5768445
C           2.7766214     0.0919825     0.7489765
H           1.9542680    -0.4866135     1.1568779
C           3.3623213     1.0830904     1.5312401
H           3.0019200     1.2321123     2.5462454
30
383_C14H15N_14-0-3-25 (120,) energy =    -597.2658041
C           1.9437045    -2.1234826    -0.5537799
H           2.4072366    -3.0378765    -0.9575894
H           2.2248069    -2.0978235     0.5039053
N           2.5198837    -0.9575249    -1.2138766
C           2.7882165    -1.1334348    -2.6293433
H           1.9774358    -1.7225019    -3.0674847
H           3.7408324    -1.6534687    -2.8313181