18
305_C8H10_0-4-13-11 (-165,) energy =    -310.8784468
C           1.7783334    -1.7318674    -0.4288878
H           2.4615146    -2.2872576    -1.0810689
H           0.7572699    -1.9931663    -0.7269186
H           1.9307351    -2.0864496     0.5969383
C           1.9905949    -0.2186132    -0.5352363
H           1.2079701     0.2936541     0.0405375
H           1.8295940     0.0885561    -1.5793829
C           5.8274892     1.3749981     0.7319670
H           6.7841402     1.7849510     1.0447631
C           4.7245268     2.2137617     0.5526911
H           4.8183296     3.2827131     0.7271766
C           3.4995091     1.6818268     0.1553288
H           2.6451062     2.3429868     0.0220276
C           3.3424497     0.3062839    -0.0766228
C           4.4560440    -0.5216984     0.1086675
H           4.3703329    -1.5914798    -0.0566053
C           5.6868251     0.0063637     0.5089580
H           6.5358605    -0.6583447     0.6477129
18
305_C8H10_0-4-13-11 (-150,) energy =    -310.8785610
C           1.7417348    -1.7058715    -0.3193401
H           2.4490919    -2.3819608    -0.8115469
H           0.7389136    -1.9750070    -0.6688103
H           1.7884950    -1.8990590     0.7583488
C           2.0381721    -0.2343775    -0.6349493
H           1.2333260     0.3899534    -0.2264607
H           1.9933858    -0.0928943    -1.7255361
C           5.8235863     1.3759761     0.7577696
H           6.7692744     1.7882227     1.0995489
C           4.6954510     2.1915488     0.6517569
H           4.7569454     3.2451223     0.9126667
C           3.4836317     1.6554348     0.2169954
H           2.6088858     2.2986065     0.1424932
C           3.3665454     0.2999541    -0.1242093
C           4.5078562    -0.5056087    -0.0129200
H           4.4540857    -1.5604267    -0.2668202
C           5.7234228     0.0252889     0.4238787
H           6.5936931    -0.6213688     0.5040238
18
305_C8H10_0-4-13-11 (-135,) energy =    -310.8790072
C           1.6784051    -1.6439892    -0.2086516
H           2.4140006    -2.4039871    -0.4928061
H           0.7126103    -1.9507643    -0.6257246
H           1.5954538    -1.6532345     0.8839129
C           2.0678733    -0.2498084    -0.7227423
H           1.2645970     0.4591157    -0.4874638
H           2.1238007    -0.2832996    -1.8211248
C           5.8094805     1.3618895     0.7759814
H           6.7463433     1.7708702     1.1449025
C           4.6599121     2.1516317     0.7435000
H           4.6952763     3.1820748     1.0881159
C           3.4587383     1.6200962     0.2709767
H           2.5669208     2.2431742     0.2513123
C           3.3759957     0.2946380    -0.1760690
C           4.5417905    -0.4846497    -0.1425474
H           4.5137203    -1.5137233    -0.4917225
C           5.7450225     0.0405890     0.3294308
H           6.6347065    -0.5840033     0.3469747
18
305_C8H10_0-4-13-11 (-120,) energy =    -310.8796392
C           1.6234387    -1.5808251    -0.1162123
H           2.3713277    -2.3776161    -0.1929470
H           0.6966209    -1.9481226    -0.5715629
H           1.4339882    -1.4058834     0.9487654
C           2.0990780    -0.2935475    -0.8103206
H           1.3107777     0.4662087    -0.7458589
H           2.2363550    -0.5000522    -1.8813637
C           5.7824470     1.3398274     0.7953162
H           6.7063940     1.7494355     1.1948632
C           4.6080845     2.0915601     0.8250229
H           4.6115472     3.0928339     1.2483900
C           3.4233949     1.5611191     0.3093168
H           2.5121707     2.1550620     0.3356078
C           3.3853148     0.2738967    -0.2405477
C           4.5761962    -0.4675623    -0.2692931
H           4.5765977    -1.4651030    -0.7034289
C           5.7621018     0.0564585     0.2437668
H           6.6730281    -0.5359796     0.2099101
18
305_C8H10_0-4-13-11 (-105,) energy =    -310.8800788
C           1.5689144    -1.4904114    -0.0335374
H           2.2916596    -2.3087939     0.0592319
H           0.6572152    -1.8941858    -0.4888767
H           1.3228579    -1.1497741     0.9784788
C           2.1414404    -0.3381543    -0.8780839
H           1.3845201     0.4494398    -0.9773854
H           2.3400382    -0.7063628    -1.8936548
C           5.7688378     1.3247244     0.8143494
H           6.6788440     1.7382233     1.2409805
C           4.5668816     2.0271655     0.9038956
H           4.5356653     2.9933375     1.4012329
C           3.4006482     1.4937507     0.3510562
H           2.4682014     2.0500075     0.4223562
C           3.4104103     0.2525022    -0.2973243
C           4.6270621    -0.4401632    -0.3834259
H           4.6594982    -1.4016042    -0.8923822
C           5.7949395     0.0874168     0.1665168
H           6.7277150    -0.4650104     0.0852325
18
305_C8H10_0-4-13-11 (-90,) energy =    -310.8802220
C           1.5106698    -1.3974105     0.0280856
H           2.1856482    -2.2191081     0.2928118
H           0.6133615    -1.8281841    -0.4312530
H           1.2123378    -0.9011599     0.9584628
C           2.1978435    -0.4065339    -0.9289044
H           1.4873949     0.3857702    -1.1969065
H           2.4513598    -0.9257226    -1.8620123
C           5.7613725     1.3234188     0.8263791
H           6.6541581     1.7536005     1.2724530
C           4.5258336     1.9555648     0.9764147
H           4.4525146     2.8823803     1.5398608
C           3.3819871     1.4032104     0.3983552
H           2.4234528     1.9050017     0.5157323
C           3.4475564     0.2123960    -0.3376044
C           4.6952030    -0.4096842    -0.4816790
H           4.7678782    -1.3314728    -1.0556406
C           5.8425245     0.1376973     0.0938927
H           6.8008566    -0.3593650    -0.0340185
18
305_C8H10_0-4-13-11 (-75,) energy =    -310.8801014
C           1.4372448    -1.2856584     0.0718870
H           2.0383779    -2.0940274     0.5031086
H           0.5516957    -1.7311023    -0.3960842
H           1.0997341    -0.6479666     0.8965870
C           2.2538898    -0.4792711    -0.9535133
H           1.6098289     0.2950789    -1.3915860
H           2.5507593    -1.1378472    -1.7789623
C           5.7680960     1.3339635     0.8200942
H           6.6476203     1.7860053     1.2708645
C           4.5027892     1.8825081     1.0422553
H           4.3944312     2.7657950     1.6666854
C           3.3759446     1.3025541     0.4602406
H           2.3948564     1.7402971     0.6345087
C           3.4869924     0.1664999    -0.3547946
C           4.7620080    -0.3719685    -0.5686780
H           4.8692406    -1.2517454    -1.1999560
C           5.8941036     0.2041295     0.0114550
H           6.8741699    -0.2292998    -0.1713676
18
305_C8H10_0-4-13-11 (-60,) energy =    -310.8796355
C           1.3476482    -1.1806871     0.0831412
H           1.8557006    -1.9409197     0.6869515
H           0.4911990    -1.6537470    -0.4107911
H           0.9589481    -0.4191344     0.7679185
C           2.3053201    -0.5699289    -0.9536719
H           1.7484676     0.1560640    -1.5633075
H           2.6398597    -1.3532072    -1.6446015
C           5.7738024     1.3520585     0.8042951
H           6.6424738     1.8323266     1.2468430
C           4.4877865     1.8061431     1.1068294
H           4.3521961     2.6439981     1.7861805
C           3.3741473     1.1888530     0.5384676
H           2.3790118     1.5568545     0.7788993
C           3.5179838     0.1089128    -0.3457398
C           4.8133990    -0.3359225    -0.6373448
H           4.9470683    -1.1742759    -1.3178580
C           5.9328225     0.2780305    -0.0710992
H           6.9281460    -0.0851258    -0.3145168
18
305_C8H10_0-4-13-11 (-45,) energy =    -310.8789527
C           1.2647265    -1.0680417     0.0734843
H           1.6692945    -1.7218685     0.8542201
H           0.4616689    -1.6084050    -0.4402002
H           0.8124539    -0.2011439     0.5666719
C           2.3572278    -0.6549141    -0.9239502
H           1.9047833    -0.0098844    -1.6922301
H           2.7150604    -1.5444499    -1.4566547
C           5.7918060     1.3800856     0.7825498
H           6.6538944     1.8886231     1.2059458
C           4.5004943     1.7387622     1.1735906
H           4.3527726     2.5305971     1.9037628
C           3.3937638     1.0838794     0.6322534
H           2.3968550     1.3803872     0.9480391
C           3.5503754     0.0598005    -0.3132048
C           4.8532832    -0.2911908    -0.6915779
H           4.9981892    -1.0884776    -1.4177259
C           5.9643962     0.3608017    -0.1543550
H           6.9642064     0.0679803    -0.4649557
18
305_C8H10_0-4-13-11 (-30,) energy =    -310.8785387
C           1.1810638    -0.9646462     0.0379144
H           1.4736242    -1.4862601     0.9562226
H           0.4193100    -1.5687904    -0.4669794
H           0.7074979    -0.0198757     0.3258122
C           2.3848825    -0.7455680    -0.8867042
H           2.0448637    -0.2088613    -1.7855449
H           2.7426849    -1.7186687    -1.2465683
C           5.7872140     1.3948402     0.7587973
H           6.6435616     1.9295070     1.1611381
C           4.5034750     1.6588745     1.2361276
H           4.3545276     2.4028109     2.0148075
C           3.4033047     0.9694131     0.7213678
H           2.4133059     1.1906316     1.1096846
C           3.5612753     0.0035643    -0.2814531
C           4.8593588    -0.2539328    -0.7466980
H           5.0061930    -1.0062301    -1.5193109
C           5.9612612     0.4328007    -0.2379858
H           6.9564545     0.2117701    -0.6156298
18
305_C8H10_0-4-13-11 (-15,) energy =    -310.8784454
C           1.1352243    -0.8559194    -0.0014864
H           1.3165720    -1.2513079     1.0045399
H           0.3878238    -1.4948397    -0.4840048
H           0.6938479     0.1413658     0.1042858
C           2.4219515    -0.8255253    -0.8317467
H           2.1900047    -0.4233953    -1.8292494
H           2.7587009    -1.8562204    -1.0070581
C           5.7909800     1.4161095     0.7465488
H           6.6405058     1.9744753     1.1307274
C           4.5231830     1.5948482     1.2973233
H           4.3783206     2.2953675     2.1160179
C           3.4309639     0.8749891     0.8044677
H           2.4534989     1.0290752     1.2515028
C           3.5834259    -0.0361604    -0.2473751
C           4.8673952    -0.2075226    -0.7884777
H           5.0093102    -0.9153585    -1.6031910
C           5.9593346     0.5085007    -0.3023993
H           6.9431946     0.3554154    -0.7388680
18
305_C8H10_0-4-13-11 (0,) energy =    -310.8784613
C           1.0999562    -0.7801954    -0.0610835
H           1.1663713    -1.0723678     0.9931310
H           0.3540599    -1.4251817    -0.5376706
H           0.7236765     0.2483807    -0.1016869
C           2.4489195    -0.9166012    -0.7716726
H           2.3177025    -0.6695148    -1.8348753
H           2.7535013    -1.9728703    -0.7568211
C           5.7777032     1.4367947     0.7278644
H           6.6185854     2.0202747     1.0932878
C           4.5324395     1.5312187     1.3458242
H           4.3962320     2.1910695     2.1990469
C           3.4508632     0.7801889     0.8750958
H           2.4901083     0.8705104     1.3726509
C           3.5927574    -0.0784799    -0.2207379
C           4.8538892    -0.1623250    -0.8326354
H           4.9860381    -0.8240782    -1.6868902
C           5.9345530     0.5834561    -0.3678988
H           6.9002787     0.4996656    -0.8601148
18
305_C8H10_0-4-13-11 (15,) energy =    -310.8784454
C           1.0837847    -0.7017597    -0.1289210
H           1.0352948    -0.8818295     0.9508022
H           0.3399530    -1.3514066    -0.6025495
H           0.7863927     0.3375551    -0.3097261
C           2.4774824    -0.9919800    -0.6939889
H           2.4432848    -0.9110483    -1.7888620
H           2.7304292    -2.0430186    -0.4894032
C           5.7766185     1.4592026     0.7108982
H           6.6102065     2.0653541     1.0555299
C           4.5631557     1.4751480     1.3963638
H           4.4449249     2.0959042     2.2810424
C           3.4903623     0.6970462     0.9517082
H           2.5539572     0.7281200     1.5005256
C           3.6086411    -0.1117300    -0.1848226
C           4.8360387    -0.1135934    -0.8661635
H           4.9477428    -0.7309449    -1.7557300
C           5.9092450     0.6585964    -0.4265682
H           6.8483773     0.6395233    -0.9739138
18
305_C8H10_0-4-13-11 (30,) energy =    -310.8785387
C           1.0714133    -0.6360488    -0.2338161
H           0.9191967    -0.6543189     0.8507290
H           0.3348102    -1.3155857    -0.6763339
H           0.8515143     0.3781511    -0.5859591
C           2.4916224    -1.0654935    -0.6219885
H           2.5540105    -1.1533378    -1.7141622
H           2.6695914    -2.0811059    -0.2367126
C           5.7616494     1.4715080     0.6953721
H           6.5868233     2.0996239     1.0203897
C           4.5885041     1.4041593     1.4468613
H           4.4951303     1.9815871     2.3632825
C           3.5267778     0.5994624     1.0274466
H           2.6223996     0.5641523     1.6280114
C           3.6144754    -0.1558792    -0.1495149
C           4.7988999    -0.0728056    -0.8965192
H           4.8854494    -0.6444737    -1.8185537
C           5.8629883     0.7272733    -0.4815881
H           6.7687102     0.7743418    -1.0810305
18
305_C8H10_0-4-13-11 (45,) energy =    -310.8789527
C           1.0953440    -0.5603867    -0.3463439
H           0.8697290    -0.3727462     0.7087320
H           0.3489655    -1.2706274    -0.7194971
H           0.9667164     0.3837407    -0.8874458
C           2.5125490    -1.1203833    -0.5388157
H           2.6591600    -1.3769775    -1.5951099
H           2.5921498    -2.0698137     0.0118821
C           5.7528988     1.4967944     0.6860114
H           6.5669162     2.1494179     0.9901974
C           4.6348226     1.3363549     1.5065071
H           4.5752470     1.8640986     2.4551445
C           3.5883677     0.5007987     1.1146559
H           2.7282103     0.3875083     1.7694530
C           3.6356013    -0.1955671    -0.1018963
C           4.7627985    -0.0200198    -0.9158626
H           4.8166451    -0.5444808    -1.8677006
C           5.8132841     0.8137033    -0.5290020
H           6.6757567     0.9324274    -1.1800655
18
305_C8H10_0-4-13-11 (60,) energy =    -310.8796355
C           1.1231413    -0.5078527    -0.4733288
H           0.8551708    -0.1080496     0.5107035
H           0.3489344    -1.2274082    -0.7633352
H           1.0999994     0.3238185    -1.1863823
C           2.5077964    -1.1767335    -0.4516242
H           2.7221382    -1.5998609    -1.4404852
H           2.4772568    -2.0280117     0.2435006
C           5.7200227     1.5133250     0.6708961
H           6.5234146     2.1892569     0.9515630
C           4.6692553     1.2624468     1.5566189
H           4.6530351     1.7426354     2.5318416
C           3.6390288     0.3951453     1.1950989
H           2.8301650     0.2049504     1.8973044
C           3.6354776    -0.2431751    -0.0544277
C           4.6945558     0.0202134    -0.9319200
H           4.7092673    -0.4617011    -1.9072886
C           5.7292589     0.8880946    -0.5757555
H           6.5410051     1.0750570    -1.2742659
18
305_C8H10_0-4-13-11 (75,) energy =    -310.8801014
C           1.1660735    -0.4729765    -0.6002712
H           0.8538921     0.0888696     0.2871780
H           0.3686575    -1.1825691    -0.8497119
H           1.2596389     0.2397470    -1.4273407
C           2.4963919    -1.2060198    -0.3522461
H           2.7654410    -1.7812834    -1.2466198
H           2.3546847    -1.9371379     0.4550489
C           5.7034388     1.5278197     0.6597336
H           6.5033140     2.2185751     0.9130219
C           4.7306325     1.1998358     1.6070100
H           4.7720314     1.6343683     2.6026594
C           3.7069144     0.3107973     1.2807022
H           2.9566207     0.0569272     2.0271147
C           3.6325178    -0.2695907     0.0060070
C           4.6150303     0.0684847    -0.9329993
H           4.5760446    -0.3731805    -1.9266943
C           5.6424958     0.9581798    -0.6123108
H           6.3961290     1.2033008    -1.3564668
18
305_C8H10_0-4-13-11 (90,) energy =    -310.8802220
C           1.2023223    -0.4733276    -0.7362250
H           0.8394039     0.2165437     0.0339935
H           0.3974041    -1.1810065    -0.9664797
H           1.4068053     0.1149540    -1.6378760
C           2.4667638    -1.2124537    -0.2621425
H           2.7827388    -1.9188862    -1.0403653
H           2.2212917    -1.8135904     0.6225532
C           5.6916985     1.5323146     0.6535823
H           6.4965136     2.2261592     0.8815229
C           4.7982112     1.1394215     1.6515759
H           4.9052367     1.5258386     2.6620518
C           3.7686408     0.2445666     1.3568668
H           3.0793962    -0.0606332     2.1418223
C           3.6097454    -0.2736323     0.0645056
C           4.5157465     0.1281058    -0.9265205
H           4.4132644    -0.2688072    -1.9346701
C           5.5472761     1.0225260    -0.6380504
H           6.2413390     1.3174054    -1.4210928
18
305_C8H10_0-4-13-11 (105,) energy =    -310.8800788
C           1.2377218    -0.4978749    -0.8544776
H           0.8376581     0.3043531    -0.2242921
H           0.4290042    -1.2102912    -1.0544823
H           1.5381455    -0.0506532    -1.8086554
C           2.4271463    -1.1943728    -0.1697138
H           2.7764818    -2.0143759    -0.8115568
H           2.0873515    -1.6568105     0.7650505
C           5.7024221     1.5238547     0.6496291
H           6.5220983     2.2080831     0.8522853
C           4.8830760     1.0797113     1.6876800
H           5.0619326     1.4163841     2.7057512
C           3.8331804     0.1976193     1.4233014
H           3.2011971    -0.1465356     2.2394613
C           3.5797278    -0.2548878     0.1224594
C           4.4145216     0.1967787    -0.9102833
H           4.2420636    -0.1506847    -1.9271338
C           5.4645794     1.0774768    -0.6524754
H           6.1013432     1.4121189    -1.4675825
18
305_C8H10_0-4-13-11 (120,) energy =    -310.8796392
C           1.2772974    -0.5434950    -0.9742064
H           0.8489544     0.3474259    -0.5014952
H           0.4688964    -1.2656913    -1.1359560
H           1.6598820    -0.2455627    -1.9565339
C           2.3857846    -1.1527581    -0.0994734
H           2.7585581    -2.0650654    -0.5866673
H           1.9578092    -1.4728023     0.8582377
C           5.7258074     1.5096570     0.6548326
H           6.5645752     2.1745547     0.8431785
C           4.9673502     1.0150245     1.7155839
H           5.2123709     1.2924362     2.7377426
C           3.8909769     0.1599481     1.4684509
H           3.3054277    -0.2220794     2.3021032
C           3.5482425    -0.2143368     0.1633892
C           4.3246932     0.2861514    -0.8927462
H           4.0877543    -0.0001721    -1.9152139
C           5.4005591     1.1399723    -0.6525324
H           5.9887320     1.5147464    -1.4865065
18
305_C8H10_0-4-13-11 (135,) energy =    -310.8790072
C           1.3303910    -0.6010494    -1.0712915
H           0.9184017     0.3758312    -0.7944657
H           0.4985732    -1.3093512    -1.1561921
H           1.7796499    -0.5029830    -2.0652687
C           2.3477821    -1.0886425    -0.0287546
H           2.7220040    -2.0760631    -0.3380311
H           1.8352794    -1.2510824     0.9273501
C           5.7636314     1.4993774     0.6622529
H           6.6228952     2.1409291     0.8387660
C           5.0601381     0.9523340     1.7356103
H           5.3681555     1.1657224     2.7561075
C           3.9556430     0.1310430     1.5028052
H           3.4120507    -0.2894303     2.3464051
C           3.5279651    -0.1607537     0.2006985
C           4.2492381     0.3920887    -0.8677681
H           3.9495206     0.1770543    -1.8903301
C           5.3533635     1.2143590    -0.6415269
H           5.8951760     1.6322580    -1.4863702
18
305_C8H10_0-4-13-11 (150,) energy =    -310.8785610
C           1.3968957    -0.6724513    -1.1741037
H           1.0347404     0.3598655    -1.1101743
H           0.5258486    -1.3365090    -1.1968632
H           1.9165667    -0.7861238    -2.1315685
C           2.3005080    -1.0205446     0.0154738
H           2.6491417    -2.0581267    -0.0997693
H           1.7019386    -1.0143502     0.9353138
C           5.7868246     1.4862361     0.6665643
H           6.6633782     2.1056876     0.8369169
C           5.1343118     0.8764692     1.7396431
H           5.4995505     1.0198121     2.7535100
C           4.0071794     0.0865368     1.5148736
H           3.5028681    -0.3804045     2.3586964
C           3.5057189    -0.1170877     0.2208365
C           4.1718713     0.5012980    -0.8458159
H           3.8107816     0.3674262    -1.8615375
C           5.2997212     1.2950939    -0.6265200
H           5.7970813     1.7659675    -1.4708368
18
305_C8H10_0-4-13-11 (165,) energy =    -310.8784468
C           1.4529722    -0.7568251    -1.2353611
H           1.1393123     0.2853356    -1.3649474
H           0.5530459    -1.3811629    -1.2330594
H           2.0455082    -1.0406113    -2.1122315
C           2.2340356    -0.9481476     0.0683410
H           2.5281701    -2.0049888     0.1525320
H           1.5618524    -0.7668073     0.9178822
C           5.7978129     1.4640244     0.6583266
H           6.6920276     2.0611071     0.8163027
C           5.1984940     0.7934714     1.7276095
H           5.6243188     0.8674423     2.7251579
C           4.0498557     0.0326166     1.5196425
H           3.5881272    -0.4829868     2.3598010
C           3.4723350    -0.0829184     0.2453938
C           4.0831254     0.5959006    -0.8157940
H           3.6612481     0.5335199    -1.8144042
C           5.2344728     1.3620361    -0.6124709
H           5.6885040     1.8810736    -1.4529512
18
305_C8H10_0-4-13-11 (180,) energy =    -310.8784613
C           1.8281937    -1.7440349    -0.5361684
H           2.5067687    -2.1571076    -1.2912055
H           0.8065064    -2.0102176    -0.8273875
H           2.0421612    -2.2420641     0.4163882
C           1.9670051    -0.2238166    -0.4227122
H           1.2274971     0.1479051     0.3009315
H           1.6848698     0.2318480    -1.3826391
C           5.8416742     1.3796369     0.7100532
H           6.8061236     1.7931553     0.9927238
C           4.7579264     2.2254288     0.4576808
H           4.8753679     3.3028402     0.5432589
C           3.5240344     1.6902315     0.0957166
H           2.6859699     2.3572737    -0.0987676
C           3.3371258     0.3036278    -0.0241515
C           4.4312240    -0.5304997     0.2316292
H           4.3234566    -1.6076643     0.1487298
C           5.6722866     0.0013836     0.5953822
H           6.5065945    -0.6683032     0.7887672
