31
111_C11H18N2_22-0-11-9 (-165,) energy =    -539.5171053
C           1.7572706    -0.2276552    -0.5035744
H           1.3081012    -0.6336491     0.4137383
H           1.3756784     0.7969699    -0.6069381
C           6.0473694    -0.1201658    -0.0808781
H           7.1224844     0.0871206    -0.0161526
H           5.9327220    -1.1959067     0.1076255
C           5.2838298     0.6650113     0.9915703
H           5.7278552     0.5087953     1.9827785
H           5.3908936     1.7392771     0.7789405
C           3.7723270     0.3030711     1.0362047
H           3.6403959    -0.5236478     1.7495065
C           3.2927330    -0.2219903    -0.3522580
H           3.5943491    -1.2742475    -0.4264920
C           4.0028499     0.5318161    -1.4894574
H           3.8319375     1.6114413    -1.3678642
H           3.5654201     0.2590232    -2.4568616
C           5.5219534     0.2288954    -1.4924027
H           5.7342395    -0.6020467    -2.1760920
H           6.0654575     1.0979699    -1.8847784
C           0.9568541    -2.6485487    -3.0733262
H           1.0623333    -3.6325568    -3.5104431
N           1.6390968    -2.2980942    -1.9288959
C           1.2915257    -1.0512687    -1.6695198
N           0.4095093    -0.5885011    -2.6116508
H          -0.0014886     0.3334470    -2.6371555
C           0.1850873    -1.6064667    -3.5187729
H          -0.4770687    -1.4896896    -4.3633793
C           2.9753739     1.5023357     1.5752802
H           2.9947454     2.3459067     0.8728796
H           3.4142022     1.8550015     2.5165162
H           1.9274624     1.2549200     1.7759551
31
111_C11H18N2_22-0-11-9 (-150,) energy =    -539.5157625
C           1.8693186     0.0662507    -0.6295190
H           1.3626274    -0.1851908     0.3133185
H           1.5793537     1.1002080    -0.8626123
C           6.1323314    -0.2354892    -0.0946757
H           7.2188489    -0.1359189     0.0181559
H           5.9184448    -1.3112495    -0.0442649
C           5.4080626     0.4796085     1.0520908
H           5.8048687     0.1620101     2.0245832
H           5.6201734     1.5567141     0.9774033
C           3.8681039     0.2627137     1.0207724
H           3.6312089    -0.6230996     1.6274936
C           3.3959539    -0.0503582    -0.4313283
H           3.6243506    -1.1074772    -0.6118607
C           4.1991551     0.7614606    -1.4595852
H           4.1154994     1.8320533    -1.2224440
H           3.7679732     0.6356849    -2.4603917
C           5.6871371     0.3285862    -1.4642341
H           5.8518090    -0.4293228    -2.2397152
H           6.3158805     1.1871396    -1.7329029
C           0.9513721    -2.5796529    -2.9276405
H           1.0664501    -3.5873474    -3.3040248
N           1.7363806    -2.1065041    -1.8985341
C           1.3489203    -0.8621970    -1.6909393
N           0.3410190    -0.5190096    -2.5546696
H          -0.1234250     0.3764923    -2.5990491
C           0.0755947    -1.6151595    -3.3536506
H          -0.6801436    -1.5964159    -4.1243800
C           3.1725096     1.4697193     1.6720984
H           3.3069690     2.3795839     1.0727100
H           3.6021185     1.6672512     2.6617684
H           2.0969944     1.3140377     1.8091706
31
111_C11H18N2_22-0-11-9 (-135,) energy =    -539.5132299
C           1.9390193     0.2464520    -0.8593821
H           1.3825816     0.1836312     0.0859943
H           1.7218926     1.2447917    -1.2642631
C           6.1582665    -0.2522628    -0.1512783
H           7.2409620    -0.2157581     0.0211090
H           5.8986202    -1.3158668    -0.2324897
C           5.4077897     0.3655568     1.0342201
H           5.7388470    -0.0796501     1.9808921
H           5.6743101     1.4314912     1.0933522
C           3.8611017     0.2364366     0.9098162
H           3.5471345    -0.6835360     1.4228239
C           3.4536165     0.0747599    -0.5861250
H           3.6712450    -0.9674563    -0.8446126
C           4.3299070     0.9508805    -1.4960523
H           4.2577532     1.9992439    -1.1719559
H           3.9473562     0.9239687    -2.5240970
C           5.8068820     0.4799382    -1.4665916
H           6.0039387    -0.1859198    -2.3156574
H           6.4685491     1.3462913    -1.5942512
C           0.9460760    -2.6614715    -2.7835198
H           1.0628553    -3.7025391    -3.0532698
N           1.7870325    -2.0601461    -1.8715559
C           1.3823403    -0.8082083    -1.7762308
N           0.3085909    -0.5835523    -2.5987908
H          -0.1811572     0.2924010    -2.7105600
C           0.0179590    -1.7679018    -3.2499797
H          -0.7891096    -1.8500705    -3.9623626
C           3.2007041     1.4215982     1.6348807
H           3.4052224     2.3691089     1.1194869
H           3.6000526     1.5131482     2.6523593
H           2.1140983     1.3156577     1.7226976
31
111_C11H18N2_22-0-11-9 (-120,) energy =    -539.5111851
C           1.9616831     0.3469643    -1.0632771
H           1.3614203     0.5152905    -0.1603747
H           1.8418568     1.2602868    -1.6632709
C           6.1330995    -0.2410075    -0.1113509
H           7.2022831    -0.2189007     0.1327237
H           5.8803884    -1.2958758    -0.2805291
C           5.3052594     0.2995589     1.0591915
H           5.5795622    -0.1986999     1.9975623
H           5.5571445     1.3618657     1.1976865
C           3.7712229     0.1680408     0.8318092
H           3.4449308    -0.7972547     1.2434550
C           3.4546192     0.1306105    -0.6977013
H           3.6884843    -0.8876118    -1.0252591
C           4.3961057     1.0730106    -1.4698423
H           4.3121907     2.0906219    -1.0614895
H           4.0810065     1.1409928    -2.5186586
C           5.8637613     0.5814246    -1.3921337
H           6.0993372    -0.0288948    -2.2727393
H           6.5402560     1.4450803    -1.4258169
C           0.8832247    -2.7691595    -2.5774933
H           1.0023168    -3.8310110    -2.7460092
N           1.7816032    -2.0622515    -1.8059487
C           1.3566755    -0.8138066    -1.8063978
N           0.2130547    -0.6932818    -2.5536764
H          -0.3040964     0.1585962    -2.7165672
C          -0.1006559    -1.9437355    -3.0537681
H          -0.9605381    -2.1120147    -3.6846315
C           3.0588068     1.2756716     1.6266869
H           3.2445223     2.2658685     1.1901170
H           3.4352032     1.2992627     2.6566982
H           1.9747128     1.1325483     1.6865239
31
111_C11H18N2_22-0-11-9 (-105,) energy =    -539.5113428
C           2.1723865     0.3981036    -1.4385040
H           1.5634639     0.8348132    -0.6399356
H           2.1658716     1.1457531    -2.2459813
C           6.2900531    -0.1746346    -0.2234611
H           7.3384640    -0.1321796     0.0961552
H           6.0796453    -1.2299276    -0.4418562
C           5.3659421     0.3045883     0.8996470
H           5.5893090    -0.2129267     1.8411829
H           5.5690548     1.3700507     1.0857674
C           3.8585361     0.1259615     0.5597351
H           3.5543256    -0.8734923     0.9023062
C           3.6391478     0.1573488    -0.9905697
H           3.9052914    -0.8334389    -1.3729429
C           4.6171191     1.1574616    -1.6387366
H           4.4905191     2.1481908    -1.1784011
H           4.3734863     1.2842387    -2.7006120
C           6.0835451     0.6822341    -1.4928793
H           6.3754141     0.1017977    -2.3767317
H           6.7482810     1.5551060    -1.4631952
C           1.0542319    -2.7627167    -2.8258741
H           1.2597288    -3.7287889    -3.2670518
N           2.0757506    -1.9173962    -2.4473733
C           1.4930575    -0.8441384    -1.9489328
N           0.1282049    -0.9716644    -1.9936841
H          -0.5433923    -0.2904454    -1.6703102
C          -0.1653659    -2.1998245    -2.5567243
H          -1.1800687    -2.5412265    -2.6964182
C           3.0445511     1.1521181     1.3651599
H           3.1760738     2.1694332     0.9734499
H           3.3815592     1.1600063     2.4088589
H           1.9717151     0.9316243     1.3794166
31
111_C11H18N2_22-0-11-9 (-90,) energy =    -539.5134827
C           2.1936554     0.4839419    -1.5423070
H           1.6027550     1.1255933    -0.8802016
H           2.3253216     1.0633766    -2.4688314
C           6.1444510    -0.2087367     0.0963043
H           7.1476516    -0.1839846     0.5388804
H           5.9682594    -1.2500670    -0.2043889
C           5.0886984     0.2025844     1.1265009
H           5.2053401    -0.3658480     2.0578509
H           5.2526225     1.2574578     1.3941243
C           3.6381777     0.0282766     0.5970171
H           3.3234652    -1.0005673     0.8221468
C           3.5951811     0.1779763    -0.9625503
H           3.8893670    -0.7851810    -1.3932444
C           4.6417734     1.2176456    -1.4119723
H           4.4648548     2.1672462    -0.8864613
H           4.5231501     1.4379472    -2.4801524
C           6.0805954     0.7178846    -1.1391969
H           6.4599815     0.1820634    -2.0181961
H           6.7438314     1.5801579    -0.9934526
C           0.8241340    -2.7254634    -2.5281705
H           0.9521980    -3.7484533    -2.8558128
N           1.9094436    -1.9177484    -2.2630626
C           1.4126709    -0.7545936    -1.8874304
N           0.0418127    -0.7889957    -1.8985011
H          -0.5736527    -0.0277288    -1.6508275
C          -0.3478426    -2.0497894    -2.3107140
H          -1.3864273    -2.3314815    -2.3978951
C           2.7022262     0.9671030     1.3743299
H           2.8517583     2.0174385     1.0906118
H           2.9045734     0.8901192     2.4495186
H           1.6440741     0.7234945     1.2290959
31
111_C11H18N2_22-0-11-9 (-75,) energy =    -539.5160830
C           2.2944832     0.4948504    -1.7245458
H           1.7555571     1.2656905    -1.1612490
H           2.4662925     0.9222723    -2.7242458
C           6.1647354    -0.1708385     0.0943040
H           7.1366902    -0.1331487     0.6010596
H           6.0576276    -1.1954853    -0.2859335
C           5.0285929     0.1190752     1.0800503
H           5.1167213    -0.5079747     1.9762542
H           5.1222762     1.1589578     1.4281073
C           3.6264605    -0.0858390     0.4447794
H           3.3559979    -1.1436902     0.5629964
C           3.6692699     0.1898094    -1.0965309
H           4.0188200    -0.7286039    -1.5822837
C           4.6932834     1.2986487    -1.4044496
H           4.4448378     2.1969115    -0.8209899
H           4.6281361     1.5974547    -2.4584245
C           6.1335455     0.8359460    -1.0788143
H           6.5860103     0.3770909    -1.9668275
H           6.7501042     1.7109209    -0.8362803
C           0.7203085    -2.7285708    -2.2367327
H           0.7824512    -3.7907080    -2.4323912
N           1.8555960    -1.9554177    -2.1204205
C           1.4341713    -0.7277515    -1.8817836
N           0.0640043    -0.6870995    -1.8370374
H          -0.5007812     0.1333505    -1.6709451
C          -0.4060104    -1.9665428    -2.0671395
H          -1.4601608    -2.1993373    -2.0779325
C           2.5887039     0.7373994     1.2225324
H           2.7199410     1.8157993     1.0607537
H           2.6968844     0.5563944     2.2988361
H           1.5600503     0.4750094     0.9520960
31
111_C11H18N2_22-0-11-9 (-60,) energy =    -539.5170899
C           2.3917272     0.4582733    -1.8719759
H           1.8849578     1.3245814    -1.4254239
H           2.5963408     0.7363788    -2.9167107
C           6.1882425    -0.1251136     0.0971590
H           7.1336611    -0.0817670     0.6514447
H           6.1537203    -1.1181785    -0.3702018
C           4.9967214     0.0232501     1.0497231
H           5.0785463    -0.6774547     1.8901801
H           5.0271510     1.0304117     1.4923633
C           3.6319005    -0.1826948     0.3354907
H           3.3833230    -1.2503210     0.3676848
C           3.7410026     0.2012822    -1.1749592
H           4.1750220    -0.6660215    -1.6887057
C           4.7107463     1.3816643    -1.3604938
H           4.3830990     2.2208228    -0.7303284
H           4.6768540     1.7501784    -2.3939147
C           6.1576073     0.9730147    -0.9916602
H           6.6823676     0.6143572    -1.8860869
H           6.7082152     1.8572578    -0.6460605
C           0.6431588    -2.7147455    -1.9281748
H           0.6458933    -3.7958012    -1.9682042
N           1.8194962    -1.9959857    -1.9147429
C           1.4668507    -0.7254505    -1.8544482
N           0.1007315    -0.6040546    -1.8308478
H          -0.4174098     0.2616602    -1.7887329
C          -0.4392262    -1.8757007    -1.8799190
H          -1.5046463    -2.0494553    -1.8662210
C           2.5347748     0.5689862     1.1054837
H           2.6652209     1.6575252     1.0380056
H           2.5724680     0.3046135     2.1692777
H           1.5302798     0.3231109     0.7451361
31
111_C11H18N2_22-0-11-9 (-45,) energy =    -539.5156359
C           2.4885478    -1.4252951    -1.2258383
H           2.8253485    -1.3511266    -2.2648414
H           2.4444651    -2.4983888    -0.9905445
C           5.5494085     0.3143546     1.2711047
H           6.3754249     0.8432633     1.7624674
H           5.1202797    -0.3507896     2.0335049
C           4.4897473     1.3314385     0.7950038
H           3.9051084     1.6684671     1.6605450
H           5.0009427     2.2237223     0.4109691
C           3.5312891     0.7879463    -0.3136028
H           2.5138852     1.1158662    -0.0679260
C           3.5315083    -0.7600476    -0.2898642
H           3.2484854    -1.0384491     0.7383764
C           4.9353709    -1.3545983    -0.5501398
H           5.1090732    -1.4306566    -1.6312450
H           4.9506716    -2.3851303    -0.1707414
C           6.0726325    -0.5301354     0.1035228
H           6.8781592    -1.1951405     0.4377470
H           6.5210544     0.1418921    -0.6400065
C          -0.6765838     0.2709472    -1.6655485
H          -1.3383967     0.8992699    -2.2463554
N           0.5804709    -0.0604498    -2.1233293
C           1.1144029    -0.8297999    -1.1919454
N           0.2389827    -1.0036642    -0.1491910
H           0.4044565    -1.5523632     0.6821308
C          -0.9142717    -0.3012858    -0.4429241
H          -1.7639649    -0.2860199     0.2230331
C           3.8528702     1.3727994    -1.7006597
H           4.8434665     1.0687899    -2.0602766
H           3.8447891     2.4685428    -1.6574634
H           3.1059804     1.0692527    -2.4410246
31
111_C11H18N2_22-0-11-9 (-30,) energy =    -539.5131388
C           2.4602403    -1.5553706    -1.0581429
H           2.8027258    -1.6601103    -2.0934686
H           2.3406972    -2.5761833    -0.6703684
C           5.6236911     0.2829212     1.2336124
H           6.4558117     0.8369016     1.6854371
H           5.2878608    -0.4322616     1.9972725
C           4.4788563     1.2587128     0.8809043
H           3.9367640     1.5170626     1.7997380
H           4.9106116     2.1977524     0.5113187
C           3.4806842     0.7129930    -0.1909844
H           2.4656764     0.9841197     0.1238606
C           3.5598157    -0.8323921    -0.2232138
H           3.3954613    -1.1438944     0.8210995
C           4.9641318    -1.3388668    -0.6201994
H           5.0585182    -1.3429398    -1.7135633
H           5.0580686    -2.3869913    -0.3060218
C           6.1045664    -0.4903681    -0.0006997
H           6.9571022    -1.1307573     0.2558859
H           6.4769377     0.2294702    -0.7411302
C          -0.5839393     0.2349180    -1.8482875
H          -1.1902907     0.8073204    -2.5373034
N           0.6660479    -0.2223067    -2.2054302
C           1.1274585    -0.8767576    -1.1552044
N           0.2093729    -0.8577882    -0.1345007
H           0.3173634    -1.2905771     0.7713937
C          -0.8923934    -0.1455425    -0.5681429
H          -1.7605349     0.0078771     0.0551478
C           3.7055756     1.3614523    -1.5696430
H           4.7077983     1.1533709    -1.9629379
H           3.6076320     2.4512585    -1.4931921
H           2.9679977     1.0133178    -2.2992869
31
111_C11H18N2_22-0-11-9 (-15,) energy =    -539.5097965
C           2.3950565    -1.6723772    -0.8991956
H           2.7391727    -1.9758387    -1.8939036
H           2.1961615    -2.6022872    -0.3506143
C           5.6825008     0.2407715     1.1501094
H           6.5272508     0.8146873     1.5506434
H           5.4482735    -0.5180686     1.9092945
C           4.4671654     1.1747659     0.9460330
H           3.9860359     1.3455403     1.9179061
H           4.8193355     2.1573415     0.6066802
C           3.4184901     0.6396692    -0.0815934
H           2.4179687     0.8690964     0.3054451
C           3.5488678    -0.9001302    -0.1723218
H           3.5118997    -1.2402761     0.8740706
C           4.9284253    -1.3247524    -0.7211481
H           4.9216235    -1.2604786    -1.8165258
H           5.0878587    -2.3845549    -0.4816320
C           6.0875198    -0.4649457    -0.1513363
H           6.9750848    -1.0872795     0.0151785
H           6.3836700     0.2947348    -0.8859310
C          -0.5286395     0.1123936    -2.0717293
H          -1.0833856     0.5986889    -2.8628094
N           0.7116545    -0.4416851    -2.3033122
C           1.1062564    -0.9475900    -1.1487665
N           0.1519991    -0.7416169    -0.1830548
H           0.2064098    -1.0400355     0.7800771
C          -0.9003302    -0.0602582    -0.7638324
H          -1.7825320     0.2187266    -0.2074589
C           3.5466998     1.3503826    -1.4429252
H           4.5486856     1.2330291    -1.8715795
H           3.3721577     2.4265633    -1.3214938
H           2.8187285     0.9729702    -2.1668841
31
111_C11H18N2_22-0-11-9 (0,) energy =    -539.5071586
C           2.3722438    -1.7337501    -0.7068258
H           2.7169339    -2.2323665    -1.6183731
H           2.0865738    -2.5362224    -0.0141240
C           5.7940713     0.2172073     1.0817405
H           6.6554783     0.8054784     1.4211490
H           5.6681488    -0.5844930     1.8221112
C           4.5305251     1.1095778     1.0540708
H           4.1361551     1.1939577     2.0751123
H           4.8101044     2.1272516     0.7528251
C           3.4118941     0.5956470     0.0921390
H           2.4426944     0.7862292     0.5710589
C           3.5717272    -0.9360645    -0.0745298
H           3.6627121    -1.3187394     0.9520719
C           4.8995639    -1.2782731    -0.7869833
H           4.7748638    -1.1529745    -1.8697942
H           5.1131431    -2.3435506    -0.6279440
C           6.0867332    -0.4121340    -0.2879059
H           7.0014788    -1.0150525    -0.2380121
H           6.2926897     0.3898530    -1.0079728
C          -0.4218568    -0.0409512    -2.2664110
H          -0.9333938     0.3187739    -3.1490388
N           0.7914902    -0.6876045    -2.3578450
C           1.1357833    -0.9920849    -1.1190364
N           0.1751903    -0.5657711    -0.2353862
H           0.1938200    -0.6870445     0.7668222
C          -0.8288747     0.0465278    -0.9604478
H          -1.7056193     0.4653015    -0.4896622
C           3.4160529     1.3763707    -1.2367684
H           4.3926227     1.3317716    -1.7315369
H           3.1992004     2.4348859    -1.0477028
H           2.6679058     0.9987721    -1.9387024
31
111_C11H18N2_22-0-11-9 (15,) energy =    -539.5066921
C           2.3455612    -1.7371395    -0.5375322
H           2.6815315    -2.4253117    -1.3189394
H           1.9676586    -2.3678885     0.2787526
C           5.8959611     0.2326874     0.9580769
H           6.7737552     0.8324934     1.2279962
H           5.8744502    -0.6040809     1.6694102
C           4.6133227     1.0844194     1.1127303
H           4.3222223     1.0943089     2.1710623
H           4.8326829     2.1269533     0.8489830
C           3.4168169     0.5907920     0.2378089
H           2.4959170     0.7488896     0.8168481
C           3.5842718    -0.9321546     0.0017429
H           3.7914417    -1.3565691     0.9934756
C           4.8354962    -1.2048104    -0.8663163
H           4.5873532    -1.0420024    -1.9224984
H           5.0902420    -2.2688937    -0.7753205
C           6.0506539    -0.3283737    -0.4628826
H           6.9780402    -0.9088706    -0.5388704
H           6.1608832     0.5081714    -1.1642101
C          -0.2546476    -0.1343556    -2.4779548
H          -0.7064749     0.1130880    -3.4292005
N           0.9069517    -0.8723230    -2.4074781
C           1.1805966    -0.9965467    -1.1204044
N           0.2252421    -0.3670531    -0.3622772
H           0.2003673    -0.3225972     0.6459832
C          -0.6985437     0.1935413    -1.2228953
H          -1.5564428     0.7436935    -0.8664900
C           3.2867721     1.4336629    -1.0455740
H           4.2081803     1.4195059    -1.6372145
H           3.0902659     2.4797945    -0.7806742
H           2.4761027     1.0911217    -1.6925203
31
111_C11H18N2_22-0-11-9 (30,) energy =    -539.5081171
C           2.2677738    -1.6714037    -0.3335126
H           2.5633257    -2.5225685    -0.9551943
H           1.8182619    -2.0983288     0.5741581
C           5.9598444     0.2424312     0.8270174
H           6.8608827     0.8368169     1.0217827
H           6.0215901    -0.6240413     1.4993245
C           4.6995034     1.0765616     1.1643542
H           4.5184192     1.0205593     2.2455382
H           4.8890628     2.1345454     0.9427574
C           3.4200131     0.6256751     0.3894117
H           2.5595645     0.7650171     1.0615917
C           3.5568565    -0.8894372     0.0885733
H           3.8649035    -1.3530122     1.0359209
C           4.7044608    -1.1285488    -0.9215686
H           4.3390464    -0.9382445    -1.9381383
H           4.9710345    -2.1931757    -0.8888323
C           5.9546343    -0.2589246    -0.6248502
H           6.8688542    -0.8298249    -0.8277299
H           5.9844435     0.6050168    -1.3002122
C          -0.0698250    -0.0972188    -2.6016279
H          -0.4172779     0.1169279    -3.6035158
N           1.0461266    -0.8751136    -2.3824942
C           1.1865124    -0.9441242    -1.0704401
N           0.1901219    -0.2420772    -0.4401576
H           0.0757000    -0.1397914     0.5576963
C          -0.6191585     0.3114088    -1.4131853
H          -1.4852211     0.9085051    -1.1702058
C           3.1795213     1.5299990    -0.8357375
H           4.0331249     1.5263265    -1.5208360
H           3.0407696     2.5651614    -0.5001319
H           2.2984375     1.2442053    -1.4127581
31
111_C11H18N2_22-0-11-9 (45,) energy =    -539.5104940
C           2.2165491    -1.6464580    -0.1691432
H           2.4787367    -2.6168285    -0.6061872
H           1.7080397    -1.8661367     0.7806713
C           6.0070088     0.2131861     0.6917067
H           6.9247983     0.8002789     0.8190137
H           6.1292168    -0.6754803     1.3258964
C           4.7882803     1.0375320     1.1741784
H           4.7102748     0.9475029     2.2653436
H           4.9622890     2.1014572     0.9691454
C           3.4367204     0.6146188     0.5121595
H           2.6471405     0.7272598     1.2714383
C           3.5396372    -0.8905405     0.1523575
H           3.9200277    -1.3865207     1.0569628
C           4.5901091    -1.1108940    -0.9625739
H           4.1318946    -0.9134901    -1.9386240
H           4.8645919    -2.1742617    -0.9645749
C           5.8573397    -0.2386578    -0.7680435
H           6.7494149    -0.7925723    -1.0848096
H           5.8104200     0.6484998    -1.4119350
C           0.1792631    -0.1931214    -2.7822344
H          -0.0216264     0.0064569    -3.8263850
N           1.2799284    -0.9232620    -2.3917219
C           1.2242144    -0.9835336    -1.0729578
N           0.1149744    -0.3260507    -0.6053075
H          -0.1498644    -0.2248640     0.3637768
C          -0.5610417     0.1915529    -1.6932297
H          -1.4801920     0.7480309    -1.5883879
C           3.0758012     1.5650736    -0.6467085
H           3.8089891     1.5261929    -1.4580578
H           3.0586497     2.5968458    -0.2738933
H           2.0975911     1.3556151    -1.0828974
31
111_C11H18N2_22-0-11-9 (60,) energy =    -539.5123042
C           2.1453843    -1.5282662    -0.0800756
H           2.3371822    -2.5752779    -0.3485006
H           1.5969064    -1.5535738     0.8723806
C           6.0576381     0.1545656     0.5716283
H           7.0034401     0.7036049     0.6579380
H           6.1891956    -0.7654497     1.1577023
C           4.9086192     1.0003162     1.1699603
H           4.9196198     0.8927472     2.2622123
H           5.0980046     2.0624451     0.9683881
C           3.4932456     0.6307145     0.6170861
H           2.7810920     0.7084589     1.4529796
C           3.5208656    -0.8514999     0.1649757
H           3.9328819    -1.4059386     1.0215733
C           4.4901738    -1.0662479    -1.0222064
H           3.9769817    -0.8421184    -1.9628914
H           4.7434491    -2.1343796    -1.0615753
C           5.7835396    -0.2230734    -0.8900756
H           6.6360381    -0.7721440    -1.3081132
H           5.6979529     0.6967441    -1.4829829
C           0.3545764    -0.2765890    -2.9710076
H           0.2646012    -0.1263965    -4.0385682
N           1.4431350    -0.9234635    -2.4292315
C           1.2432633    -0.9389452    -1.1232808
N           0.0523346    -0.3327234    -0.8118434
H          -0.3258485    -0.2120693     0.1166205
C          -0.5247512     0.1021065    -1.9893133
H          -1.4781018     0.6081107    -2.0111876
C           3.0337497     1.6423341    -0.4507028
H           3.6651877     1.6177188    -1.3443458
H           3.0868309     2.6582209    -0.0396792
H           2.0043454     1.4716132    -0.7749669
31
111_C11H18N2_22-0-11-9 (75,) energy =    -539.5127328
C           2.2429546    -1.4493903    -0.1851455
H           2.4095467    -2.5251589    -0.3407940
H           1.6535550    -1.3703334     0.7394042
C           6.1539303     0.2751121     0.5115704
H           7.1234576     0.7879136     0.5189477
H           6.1250562    -0.3293996     1.4287767
C           5.0077815     1.2917562     0.5446740
H           5.1488857     2.0169823     1.3563013
H           5.0277688     1.8733222    -0.3886413
C           3.6152321     0.6191192     0.6912042
H           3.4232296     0.4782992     1.7660230
C           3.6331485    -0.8072381     0.0518411
H           4.0888186    -1.4629309     0.8092886
C           4.5702437    -0.8538502    -1.1690614
H           4.2636494    -0.0939262    -1.8941948
H           4.4659183    -1.8099952    -1.6944243
C           6.0399455    -0.6380158    -0.7327314
H           6.5145937    -1.6044680    -0.5185496
H           6.6019057    -0.1996718    -1.5671130
C           0.6543225    -0.3613225    -3.2628422
H           0.6861171    -0.1429812    -4.3219542
N           1.7801361    -0.7747354    -2.5840010
C           1.4061339    -0.9469929    -1.3294740
N           0.0701676    -0.6666571    -1.1849050
H          -0.4567220    -0.7192268    -0.3251804
C          -0.4225605    -0.2874682    -2.4184386
H          -1.4556516    -0.0112440    -2.5660684
C           2.5349591     1.5728196     0.1583767
H           2.6034047     1.6938156    -0.9284164
H           2.6573426     2.5640940     0.6129329
H           1.5212233     1.2310930     0.3910327
31
111_C11H18N2_22-0-11-9 (90,) energy =    -539.5122330
C           2.1742267    -1.4510217    -0.2127748
H           2.3233080    -2.5333065    -0.2858877
H           1.5450706    -1.2865856     0.6720014
C           6.1166482     0.3028220     0.3549746
H           7.0692463     0.8451297     0.3206247
H           6.1870483    -0.3789071     1.2137673
C           4.9534135     1.2742263     0.5825468
H           5.1524468     1.9324686     1.4379510
H           4.8682357     1.9335438    -0.2939147
C           3.6022671     0.5417167     0.8031491
H           3.5373502     0.2822319     1.8704517
C           3.5778370    -0.8110580     0.0149425
H           4.0968682    -1.5320229     0.6626670
C           4.4103454    -0.7074749    -1.2750037
H           4.0361417     0.1289471    -1.8796056
H           4.2665036    -1.5981317    -1.8951869
C           5.9081289    -0.5025986    -0.9499178
H           6.4079527    -1.4757669    -0.8624057
H           6.3913257     0.0150400    -1.7881657
C           0.6869552    -1.0355508    -3.4855876
H           0.6116432    -1.3224752    -4.5259723
N           1.5829711    -1.6470099    -2.6381281
C           1.4193007    -1.0735965    -1.4575927
N           0.4354717    -0.1201893    -1.5218473
H           0.1309118     0.4696033    -0.7621015
C          -0.0401368    -0.0841508    -2.8177122
H          -0.8286704     0.5876656    -3.1220190
C           2.4495421     1.5132773     0.5120045
H           2.3782362     1.7535088    -0.5551282
H           2.6078863     2.4548313     1.0518262
H           1.4828277     1.1169428     0.8461455
31
111_C11H18N2_22-0-11-9 (105,) energy =    -539.5115173
C           2.0994601    -1.3848690    -0.1561598
H           2.2014026    -2.4717894    -0.0861817
H           1.4668266    -1.0822846     0.6874509
C           6.0841320     0.2763595     0.2829601
H           7.0469291     0.8012070     0.2622376
H           6.1903002    -0.5209413     1.0310012
C           4.9653278     1.2302783     0.7159290
H           5.2299600     1.7507820     1.6450903
H           4.8620721     2.0132263    -0.0500647
C           3.5979253     0.5117518     0.8948453
H           3.5283533     0.1630794     1.9355068
C           3.5264484    -0.7597981    -0.0099979
H           4.1049068    -1.5232030     0.5281097
C           4.2598847    -0.5317463    -1.3418453
H           3.8353923     0.3466688    -1.8465950
H           4.0847494    -1.3742603    -2.0186969
C           5.7780594    -0.3319978    -1.1057266
H           6.3002278    -1.2918815    -1.2051651
H           6.1830051     0.3188903    -1.8908552
C           0.6117429    -1.4097026    -3.4527666