28
188_C13H12N2O_0-2-3-12 (-165,) energy =    -687.3614104
N           1.2895927    -0.9358346    -0.1338418
H           1.3033469     0.0479064    -0.3648016
C           2.5117032    -1.5732706     0.0347603
N           3.5756122    -0.6794999    -0.0052725
H           3.3530600     0.3044120    -0.0696928
O           2.6386072    -2.7785359     0.1982660
C           7.7112849    -1.3698283    -0.4859870
H           8.7784050    -1.5287142    -0.6109394
C           6.8536818    -2.4497144    -0.2735801
H           7.2539974    -3.4593474    -0.2311460
C           5.4807538    -2.2670227    -0.1064789
H           4.8227775    -3.1066068     0.0658479
C           4.9481267    -0.9697954    -0.1619476
C           5.8095933     0.1190584    -0.3736520
H           5.4024577     1.1281858    -0.4155285
C           7.1778802    -0.0808505    -0.5326545
H           7.8256613     0.7763267    -0.6958777
C          -2.6530446    -2.4208096     0.1007190
H          -3.6747540    -2.7847661     0.1575932
C          -2.3951910    -1.0789902    -0.1842990
H          -3.2148228    -0.3852396    -0.3513919
C          -1.0846823    -0.6158472    -0.2562054
H          -0.8937361     0.4332858    -0.4769691
C          -0.0052370    -1.4894031    -0.0451893
C          -0.2592998    -2.8400310     0.2394646
H           0.5680405    -3.5170478     0.3956492
C          -1.5791298    -3.2865419     0.3099868
H          -1.7633144    -4.3346081     0.5314339
28
188_C13H12N2O_0-2-3-12 (-150,) energy =    -687.3600366
N           1.3224364    -0.9623477    -0.0615806
H           1.3633194     0.0069808    -0.3440254
C           2.5229122    -1.5950082     0.2272483
N           3.5908244    -0.6997716     0.2811999
H           3.3565179     0.2830733     0.2333948
O           2.6385075    -2.7984828     0.4076988
C           7.6527062    -1.3653725    -0.6587152
H           8.7003242    -1.5199706    -0.9000050
C           6.8236451    -2.4506432    -0.3718735
H           7.2272416    -3.4597137    -0.3873340
C           5.4776178    -2.2718475    -0.0525581
H           4.8420609    -3.1140472     0.1829165
C           4.9414668    -0.9754884    -0.0348302
C           5.7737235     0.1186215    -0.3192612
H           5.3639129     1.1273425    -0.3022428
C           7.1177435    -0.0767076    -0.6260517
H           7.7445878     0.7838639    -0.8440499
C          -2.6404991    -2.4099948     0.0030130
H          -3.6668873    -2.7649190     0.0150116
C          -2.3552950    -1.0825673    -0.3207305
H          -3.1580412    -0.3911567    -0.5626367
C          -1.0388552    -0.6307750    -0.3344397
H          -0.8263971     0.4076342    -0.5841400
C           0.0185064    -1.5021395    -0.0266030
C          -0.2626116    -2.8386873     0.2955470
H           0.5490974    -3.5147347     0.5226753
C          -1.5881197    -3.2736116     0.3085178
H          -1.7939081    -4.3107697     0.5601350
28
188_C13H12N2O_0-2-3-12 (-135,) energy =    -687.3575628
N           1.3705946    -0.9987844     0.0357768
H           1.4508177    -0.0472054    -0.2942319
C           2.5332846    -1.6222566     0.4576809
N           3.6105025    -0.7313652     0.5658037
H           3.3665742     0.2508886     0.5321777
O           2.6282686    -2.8176767     0.6900475
C           7.5461953    -1.3527090    -0.8380923
H           8.5605778    -1.4988066    -1.1976506
C           6.7587110    -2.4466384    -0.4753422
H           7.1617137    -3.4533194    -0.5496143
C           5.4577580    -2.2769152    -0.0024785
H           4.8553389    -3.1244014     0.2962195
C           4.9219534    -0.9840433     0.0905913
C           5.7119993     0.1181265    -0.2688613
H           5.3033786     1.1245391    -0.1924415
C           7.0145736    -0.0673189    -0.7263451
H           7.6106225     0.7989554    -1.0009167
C          -2.6082589    -2.3960053    -0.1110612
H          -3.6378642    -2.7388866    -0.1551552
C          -2.2833649    -1.0869373    -0.4702376
H          -3.0581435    -0.3980612    -0.7959149
C          -0.9629343    -0.6504375    -0.4111890
H          -0.7193167     0.3740847    -0.6880576
C           0.0577773    -1.5199693     0.0049444
C          -0.2624051    -2.8384474     0.3619078
H           0.5230210    -3.5132945     0.6708487
C          -1.5917170    -3.2576627     0.3024183
H          -1.8289811    -4.2807736     0.5820985
28
188_C13H12N2O_0-2-3-12 (-120,) energy =    -687.3541415
N           1.4444417    -1.0275037     0.1431839
H           1.5724955    -0.1023165    -0.2421834
C           2.5539947    -1.6313291     0.7051343
N           3.6495898    -0.7493545     0.8333436
H           3.3931525     0.2314229     0.8184687
O           2.6140921    -2.8078116     1.0229839
C           7.4023068    -1.3329293    -1.0228365
H           8.3693680    -1.4723571    -1.4970578
C           6.6439806    -2.4348152    -0.6225890
H           7.0226065    -3.4409538    -0.7827535
C           5.4053232    -2.2720179    -0.0036372
H           4.8291236    -3.1269607     0.3273048
C           4.9004970    -0.9799340     0.2018000
C           5.6612417     0.1294455    -0.1941672
H           5.2775747     1.1349477    -0.0289949
C           6.9040454    -0.0489858    -0.7987189
H           7.4792068     0.8227192    -1.0995299
C          -2.5331837    -2.3825510    -0.2398050
H          -3.5614896    -2.7155869    -0.3460459
C          -2.1581868    -1.1040467    -0.6558517
H          -2.8922877    -0.4296981    -1.0884854
C          -0.8397064    -0.6798111    -0.5166714
H          -0.5566897     0.3210756    -0.8385553
C           0.1279017    -1.5321807     0.0377804
C          -0.2418623    -2.8202236     0.4521682
H           0.5048606    -3.4820205     0.8673861
C          -1.5689122    -3.2270825     0.3113111
H          -1.8458283    -4.2265126     0.6363287
28
188_C13H12N2O_0-2-3-12 (-105,) energy =    -687.3511590
N           1.4743410    -0.8948509     0.2179725
H           1.6273607    -0.0963788    -0.3835912
C           2.5070472    -1.1575643     1.0756677
N           3.5865044    -0.2090542     0.8660716
H           3.8533682     0.1411262     1.7839706
O           2.5193603    -2.0080394     1.9463946
C           7.0582817    -1.4395498    -1.2246283
H           7.9505112    -1.7402514    -1.7657440
C           5.8087941    -1.9515059    -1.5777766
H           5.7230095    -2.6581590    -2.3990928
C           4.6585891    -1.5696246    -0.8887634
H           3.6940245    -1.9771448    -1.1772660
C           4.7477089    -0.6671819     0.1808246
C           6.0029882    -0.1546127     0.5372485
H           6.0810387     0.5474377     1.3648572
C           7.1451692    -0.5375878    -0.1627588
H           8.1091558    -0.1301728     0.1305227
C          -2.2345219    -2.8184048    -0.3379664
H          -3.1943496    -3.3025419    -0.4929433
C          -1.8633133    -1.7218419    -1.1184115
H          -2.5314382    -1.3443660    -1.8876802
C          -0.6325791    -1.1031312    -0.9184851
H          -0.3468292    -0.2502210    -1.5310399
C           0.2448877    -1.5743620     0.0700059
C          -0.1222288    -2.6744823     0.8585604
H           0.5537365    -3.0329968     1.6224983
C          -1.3585113    -3.2839986     0.6432761
H          -1.6362263    -4.1360813     1.2579797
28
188_C13H12N2O_0-2-3-12 (-90,) energy =    -687.3534923
N           1.5384025    -0.9105253     0.3141673
H           1.7593631    -0.1595001    -0.3262526
C           2.4942752    -1.1512605     1.2663936
N           3.6299283    -0.2853936     1.0872015
H           3.9737801    -0.0639752     2.0186324
O           2.3861155    -1.9110802     2.2128492
C           6.9092159    -1.3585523    -1.3730052
H           7.7549114    -1.6181276    -2.0027777
C           5.6461865    -1.8933406    -1.6267443
H           5.5023649    -2.5791749    -2.4575608
C           4.5540512    -1.5671368    -0.8222294
H           3.5827354    -2.0037916    -1.0318382
C           4.7177006    -0.6926003     0.2614582
C           5.9879338    -0.1539262     0.5159499
H           6.1214034     0.5303839     1.3510250
C           7.0706501    -0.4869952    -0.2939377
H           8.0467855    -0.0613856    -0.0766148
C          -2.1504763    -2.8002195    -0.4533419
H          -3.1037971    -3.2760160    -0.6642072
C          -1.6724280    -1.7815910    -1.2797809
H          -2.2496829    -1.4572513    -2.1413469
C          -0.4498596    -1.1737811    -1.0087066
H          -0.0801128    -0.3829153    -1.6585376
C           0.3115320    -1.5761252     0.0993956
C          -0.1647304    -2.5962714     0.9358991
H           0.4199223    -2.8994531     1.7933379
C          -1.3898801    -3.1976898     0.6469308
H          -1.7518080    -3.9878912     1.2993743
28
188_C13H12N2O_0-2-3-12 (-75,) energy =    -687.3561586
N           1.6080052    -0.9726921     0.3772548
H           1.9094086    -0.2862537    -0.3018403
C           2.4900638    -1.2071912     1.4039128
N           3.6840483    -0.4421203     1.2642819
H           4.0728258    -0.3253279     2.1958501
O           2.2645301    -1.8815147     2.3954756
C           6.7931110    -1.2383625    -1.5008560
H           7.5982875    -1.4273905    -2.2045119
C           5.5545681    -1.8590509    -1.6583382
H           5.3903988    -2.5443291    -2.4858035
C           4.5143140    -1.6268413    -0.7569109
H           3.5675333    -2.1402421    -0.8869798
C           4.7057535    -0.7532970     0.3231261
C           5.9517199    -0.1253860     0.4788427
H           6.1023521     0.5614896     1.3085087
C           6.9840981    -0.3723900    -0.4215378
H           7.9423672     0.1201143    -0.2791287
C          -2.1083949    -2.7425400    -0.5339907
H          -3.0671865    -3.1881077    -0.7827086
C          -1.5156293    -1.8169559    -1.3947155
H          -2.0080885    -1.5353851    -2.3215430
C          -0.2860154    -1.2482036    -1.0748718
H           0.1729131    -0.5303923    -1.7521905
C           0.3680324    -1.5953438     0.1176014
C          -0.2249352    -2.5209104     0.9892351
H           0.2755870    -2.7804207     1.9116829
C          -1.4546980    -3.0855341     0.6501648
H          -1.9063576    -3.8025551     1.3306623
28
188_C13H12N2O_0-2-3-12 (-60,) energy =    -687.3586033
N           1.6767063    -1.0793177     0.4138434
H           2.0528724    -0.4681031    -0.2990341
C           2.4880251    -1.2927731     1.5048121
N           3.7322814    -0.6316684     1.3992806
H           4.1430039    -0.5808715     2.3259793
O           2.1614388    -1.8768633     2.5268661
C           6.7042478    -1.1145952    -1.5763030
H           7.4759036    -1.2251156    -2.3323174
C           5.5204926    -1.8461887    -1.6625811
H           5.3679096    -2.5408574    -2.4843620
C           4.5246749    -1.7177219    -0.6925108
H           3.6266379    -2.3221274    -0.7612850
C           4.7023901    -0.8312028     0.3799265
C           5.8929609    -0.0912308     0.4626159
H           6.0284047     0.6059669     1.2858568
C           6.8857240    -0.2407739    -0.5014287
H           7.8021244     0.3370612    -0.4157454
C          -2.1114042    -2.6536178    -0.5614332
H          -3.0869205    -3.0498979    -0.8279241
C          -1.4176638    -1.8286700    -1.4485541
H          -1.8473401    -1.5767004    -2.4143730
C          -0.1669852    -1.3229720    -1.1053593
H           0.3699632    -0.6832726    -1.8034069
C           0.4086396    -1.6325181     0.1372227
C          -0.2862495    -2.4569020     1.0352116
H           0.1526546    -2.6869925     1.9959166
C          -1.5360452    -2.9593379     0.6725154
H          -2.0662444    -3.5976803     1.3744551
28
188_C13H12N2O_0-2-3-12 (-45,) energy =    -687.3604264
N           1.7416265    -1.2021784     0.4311131
H           2.1773150    -0.6739901    -0.3134360
C           2.4943615    -1.3725488     1.5726510
N           3.7808928    -0.8170921     1.4861285
H           4.1974586    -0.7880499     2.4096445
O           2.0899021    -1.8574045     2.6198948
C           6.6413375    -0.9942340    -1.6242417
H           7.3854686    -1.0286525    -2.4144166
C           5.5195009    -1.8209801    -1.6746353
H           5.3902804    -2.5144594    -2.5013492
C           4.5616406    -1.7916416    -0.6595263
H           3.7179359    -2.4725326    -0.6946232
C           4.7101744    -0.9054783     0.4187057
C           5.8386149    -0.0710282     0.4649559
H           5.9498364     0.6236188     1.2936669
C           6.7985773    -0.1251413    -0.5417505
H           7.6675143     0.5249699    -0.4850133
C          -2.1265165    -2.5638493    -0.5530081
H          -3.1209396    -2.9071847    -0.8231371
C          -1.3532422    -1.8473285    -1.4680567
H          -1.7393350    -1.6273169    -2.4597996
C          -0.0788084    -1.4091554    -1.1195419
H           0.5189805    -0.8530572    -1.8394961
C           0.4429676    -1.6787087     0.1560293
C          -0.3318655    -2.3944146     1.0815965
H           0.0653163    -2.5934794     2.0669459
C          -1.6051018    -2.8297966     0.7136938
H          -2.1968516    -3.3838171     1.4377809
28
188_C13H12N2O_0-2-3-12 (-30,) energy =    -687.3615052
N           1.8068097    -1.3404589     0.3958315
H           2.2847240    -0.8979535    -0.3779736
C           2.5112296    -1.4381601     1.5769959
N           3.8318555    -0.9856083     1.4978055
H           4.2345851    -0.9088360     2.4232072
O           2.0471820    -1.8080364     2.6470957
C           6.6225244    -0.8885411    -1.6736727
H           7.3491306    -0.8548970    -2.4800282
C           5.5620638    -1.7934696    -1.7165271
H           5.4653074    -2.4803961    -2.5530416
C           4.6295796    -1.8521132    -0.6796149
H           3.8401517    -2.5959514    -0.7038207
C           4.7360596    -0.9736627     0.4110573
C           5.8043938    -0.0630895     0.4504253
H           5.8854653     0.6221597     1.2903229
C           6.7430429    -0.0310677    -0.5773938
H           7.5649571     0.6779505    -0.5266093
C          -2.1416519    -2.4831676    -0.5509860
H          -3.1553950    -2.7725658    -0.8123727
C          -1.3149454    -1.8720997    -1.4952758
H          -1.6783980    -1.6808297    -2.5014606
C          -0.0162705    -1.5020253    -1.1574723
H           0.6220203    -1.0265648    -1.9001126
C           0.4783258    -1.7359958     0.1360253
C          -0.3498922    -2.3470398     1.0899932
H           0.0263560    -2.5183781     2.0885905
C          -1.6477848    -2.7137135     0.7335090
H          -2.2804156    -3.1861460     1.4805524
28
188_C13H12N2O_0-2-3-12 (-15,) energy =    -687.3619939
N           1.8569644    -1.4683580     0.3959804
H           2.3700652    -1.1115332    -0.3991458
C           2.5306761    -1.5014187     1.5986073
N           3.8810902    -1.1548763     1.5228976
H           4.2679166    -1.0017987     2.4448146
O           2.0263751    -1.7620921     2.6830112
C           6.5819805    -0.7789771    -1.7015135
H           7.2849966    -0.6764264    -2.5228181
C           5.5894343    -1.7583275    -1.7406902
H           5.5238572    -2.4341911    -2.5891055
C           4.6898130    -1.9051676    -0.6838042
H           3.9600482    -2.7083183    -0.6992958
C           4.7568298    -1.0410354     0.4218455
C           5.7582654    -0.0573679     0.4582007
H           5.8106873     0.6151192     1.3106060
C           6.6676018     0.0624547    -0.5896433
H           7.4380853     0.8272327    -0.5421381
C          -2.1533195    -2.3898039    -0.5329412
H          -3.1820246    -2.6241417    -0.7910649
C          -1.2772400    -1.8934481    -1.4997131
H          -1.6168113    -1.7371925    -2.5202166
C           0.0403613    -1.5931660    -1.1660111
H           0.7167386    -1.2058331    -1.9259686
C           0.5053227    -1.7841157     0.1454139
C          -0.3719547    -2.2809857     1.1216050
H          -0.0179904    -2.4195637     2.1332662
C          -1.6887786    -2.5777243     0.7693401
H          -2.3596023    -2.9613621     1.5337680
28
188_C13H12N2O_0-2-3-12 (0,) energy =    -687.3620919
N           1.8951532    -1.6021678     0.3903759
H           2.4368743    -1.3274203    -0.4182337
C           2.5451893    -1.5760890     1.6053683
N           3.9214556    -1.3392449     1.5370525
H           4.2870249    -1.1126370     2.4526748
O           2.0110942    -1.7350030     2.6951360
C           6.5264308    -0.6770939    -1.7197297
H           7.2036838    -0.5048188    -2.5509780
C           5.6144210    -1.7320340    -1.7618978
H           5.5870400    -2.3959805    -2.6217033
C           4.7509387    -1.9683171    -0.6912732
H           4.0891966    -2.8289955    -0.7037158
C           4.7687717    -1.1200635     0.4283337
C           5.6901302    -0.0618537     0.4680625
H           5.7065847     0.5968151     1.3326850
C           6.5673595     0.1482592    -0.5933922
H           7.2765569     0.9701036    -0.5448617
C          -2.1640774    -2.2894143    -0.5307559
H          -3.2047713    -2.4657015    -0.7870544
C          -1.2468321    -1.9161591    -1.5145538
H          -1.5660489    -1.7985574    -2.5467515
C           0.0860244    -1.6900711    -1.1828930
H           0.7944882    -1.3984394    -1.9562648
C           0.5255235    -1.8334418     0.1432780
C          -0.3927541    -2.2077908     1.1361994
H          -0.0576615    -2.3115146     2.1583750
C          -1.7246174    -2.4308263     0.7859870
H          -2.4272114    -2.7195563     1.5635127
28
188_C13H12N2O_0-2-3-12 (15,) energy =    -687.3619915
N           1.8199199    -1.6159607    -0.5952061
H           2.3782970    -1.0505411     0.0303580
C           2.4180422    -1.9979063    -1.7774869
N           3.7671112    -1.6565574    -1.8887000
H           4.0948800    -1.7834115    -2.8370952
O           1.8501837    -2.5562964    -2.7070319
C           6.6583009    -0.3987720     0.9202167
H           7.4094418    -0.0724851     1.6333943
C           5.6831320    -1.3222720     1.2971325
H           5.6788519    -1.7309647     2.3040406
C           4.7217103    -1.7568109     0.3834930
H           4.0041943    -2.5187518     0.6707931
C           4.7087667    -1.2400873    -0.9227289
C           5.6925526    -0.3113669    -1.2985126
H           5.6825480     0.0930335    -2.3074187
C           6.6637468     0.0946421    -0.3867816
H           7.4196874     0.8112156    -0.6963964
C          -2.1175793    -2.1904966     0.8049899
H          -3.1264719    -2.3299964     1.1824295
C          -1.1800260    -1.4665318     1.5435471
H          -1.4513044    -1.0359554     2.5038404
C           0.1120933    -1.2890838     1.0572812
H           0.8371722    -0.7234056     1.6398148
C           0.4890862    -1.8331887    -0.1814313
C          -0.4502728    -2.5600045    -0.9289647
H          -0.1638608    -2.9724800    -1.8859316
C          -1.7401472    -2.7297638    -0.4253354
H          -2.4596145    -3.2940764    -1.0130895
28
188_C13H12N2O_0-2-3-12 (30,) energy =    -687.3615052
N           1.7736411    -1.4867669    -0.6330827
H           2.2949861    -0.8500925    -0.0450072
C           2.4037877    -1.9166606    -1.7815639
N           3.7227142    -1.4718075    -1.9144753
H           4.0661898    -1.6600702    -2.8477680
O           1.8771402    -2.5664499    -2.6746924
C           6.7049582    -0.5180191     0.9231355
H           7.4801590    -0.2670613     1.6410363
C           5.6573111    -1.3654858     1.2830587
H           5.6190629    -1.7906381     2.2824430
C           4.6624701    -1.7029831     0.3640700
H           3.8827228    -2.4033999     0.6442277
C           4.6928570    -1.1649816    -0.9329305
C           5.7485297    -0.3111917    -1.2915805
H           5.7709277     0.1115456    -2.2927593
C           6.7491917    -0.0018502    -0.3742566
H           7.5600102     0.6574217    -0.6721877
C          -2.0977166    -2.2843670     0.8396777
H          -3.0905569    -2.4802108     1.2342193
C          -1.2191267    -1.4413537     1.5222751
H          -1.5207387    -0.9735172     2.4556824
C           0.0525920    -1.1919261     1.0141998
H           0.7317556    -0.5337413     1.5532011
C           0.4675297    -1.7821544    -0.1907738
C          -0.4131734    -2.6278334    -0.8825571
H          -0.0984944    -3.0745274    -1.8150579
C          -1.6829754    -2.8687871    -0.3575803
H          -2.3567921    -3.5253441    -0.9019992
28
188_C13H12N2O_0-2-3-12 (45,) energy =    -687.3604264
N           1.7051586    -1.3632629    -0.7014280
H           2.1817737    -0.6521051    -0.1626761
C           2.3866456    -1.8523070    -1.7946599
N           3.6710911    -1.3062962    -1.9471488
H           4.0289189    -1.5399893    -2.8661697
O           1.9219165    -2.6066530    -2.6375011
C           6.7215838    -0.6334686     0.9041180
H           7.5138669    -0.4525336     1.6244252
C           5.6124584    -1.4032089     1.2532698
H           5.5412544    -1.8370925     2.2471222
C           4.5928743    -1.6499182     0.3321909
H           3.7590786    -2.2863655     0.6085997
C           4.6659426    -1.1014225    -0.9576718
C           5.7818491    -0.3231871    -1.3054165
H           5.8349545     0.1114208    -2.3003852
C           6.8032265    -0.1026307    -0.3856028
H           7.6611263     0.4979946    -0.6757279
C          -2.0817732    -2.3613959     0.8631956
H          -3.0543088    -2.6067575     1.2799669
C          -1.2592704    -1.4248131     1.4916622
H          -1.5846358    -0.9332038     2.4046159
C          -0.0130158    -1.1127765     0.9558239
H           0.6235955    -0.3831353     1.4530972
C           0.4304834    -1.7324163    -0.2237294
C          -0.3942389    -2.6711399    -0.8624055
H          -0.0575937    -3.1409504    -1.7757739
C          -1.6381126    -2.9750933    -0.3088436
H          -2.2689725    -3.7039474    -0.8110346
28
188_C13H12N2O_0-2-3-12 (60,) energy =    -687.3586033
N           1.6403557    -1.2398894    -0.7151375
H           2.0548531    -0.4573213    -0.2262027
C           2.3838485    -1.7567095    -1.7515398
N           3.6263529    -1.1035724    -1.9126754
H           3.9779583    -1.3172169    -2.8404541
O           1.9992902    -2.6000033    -2.5473946
C           6.7824391    -0.7629868     0.8878646
H           7.6007345    -0.6649071     1.5949700
C           5.6129156    -1.4307943     1.2486925
H           5.5180996    -1.8669918     2.2396070
C           4.5573836    -1.5694072     0.3454586
H           3.6707883    -2.1225284     0.6361674
C           4.6599345    -1.0192074    -0.9407699
C           5.8364092    -0.3424137    -1.3009247
H           5.9140087     0.0959583    -2.2928739
C           6.8887030    -0.2256939    -0.3973885
H           7.7928047     0.2970299    -0.6980282
C          -2.0653640    -2.4453735     0.8953940
H          -3.0187866    -2.7427571     1.3222850
C          -1.3249442    -1.4117634     1.4717854
H          -1.6957083    -0.8963150     2.3536944
C          -0.1026663    -1.0331920     0.9236704
H           0.4711142    -0.2288479     1.3804042
C           0.3969895    -1.6825049    -0.2164653
C          -0.3452603    -2.7185976    -0.8033560
H           0.0348389    -3.2116919    -1.6870498
C          -1.5654687    -3.0885998    -0.2375210
H          -2.1327683    -3.8927881    -0.6987844
28
188_C13H12N2O_0-2-3-12 (75,) energy =    -687.3561586
N           1.5731307    -1.1266848    -0.7055609
H           1.9102425    -0.2806531    -0.2653364
C           2.3914247    -1.6463847    -1.6788802
N           3.5849629    -0.8834487    -1.8332338
H           3.9137770    -1.0348871    -2.7827364
O           2.1104236    -2.5687083    -2.4266314
C           6.8675167    -0.9036804     0.8445812
H           7.7166946    -0.8958994     1.5213446
C           5.6467756    -1.4446251     1.2460940
H           5.5406655    -1.8701118     2.2405579
C           4.5502605    -1.4640646     0.3824405
H           3.6180396    -1.9122540     0.7095218
C           4.6661474    -0.9285737    -0.9083069
C           5.8943434    -0.3802670    -1.3106086
H           5.9867941     0.0462604    -2.3067817
C           6.9830637    -0.3752555    -0.4433350
H           7.9261670     0.0493199    -0.7771194
C          -2.0632893    -2.5384438     0.8937394
H          -3.0006938    -2.8882636     1.3163167
C          -1.4261798    -1.4146785     1.4230472
H          -1.8622953    -0.8811361     2.2632514
C          -0.2240249    -0.9688577     0.8810170
H           0.2699041    -0.0946069     1.3009554
C           0.3573580    -1.6409720    -0.2055068
C          -0.2806350    -2.7677646    -0.7452591
H           0.1636064    -3.2789731    -1.5879294
C          -1.4817749    -3.2042522    -0.1859499
H          -1.9686579    -4.0786965    -0.6096059
28
188_C13H12N2O_0-2-3-12 (90,) energy =    -687.3534923
N           1.5070525    -1.0487544    -0.6581206
H           1.7608900    -0.1507877    -0.2679640
C           2.4037142    -1.5543190    -1.5629867
N           3.5406129    -0.6830338    -1.7039370
H           3.8236701    -0.7335725    -2.6797177
O           2.2434260    -2.5471880    -2.2509703
C           6.9764779    -1.0558216     0.7483837
H           7.8621086    -1.1367713     1.3715203
C           5.7365463    -1.4871924     1.2196735
H           5.6509610    -1.9124606     2.2162334
C           4.5934670    -1.3888567     0.4258770
H           3.6410429    -1.7409279     0.8092726
C           4.6813810    -0.8531816    -0.8669097
C           5.9284207    -0.4183540    -1.3404554
H           6.0034229     0.0043542    -2.3400241
C           7.0624957    -0.5216976    -0.5390059
H           8.0193459    -0.1824289    -0.9270102
C          -2.1098086    -2.6159687     0.8351949
H          -3.0438479    -3.0054311     1.2296014
C          -1.5901556    -1.4114095     1.3128279
H          -2.1153536    -0.8542644     2.0838477
C          -0.3923342    -0.9144051     0.8070629
H           0.0102286     0.0231148     1.1858259
C           0.3019354    -1.6169305    -0.1899007
C          -0.2165501    -2.8257729    -0.6768650
H           0.3161013    -3.3615158    -1.4502996
C          -1.4158872    -3.3116209    -0.1555776
H          -1.8108154    -4.2493021    -0.5375174
28
188_C13H12N2O_0-2-3-12 (105,) energy =    -687.3511590
N           1.4489847    -1.0062730    -0.5663220
H           1.6321699    -0.0729909    -0.2224041
C           2.4284226    -1.5072292    -1.3792705
N           3.5104015    -0.5475992    -1.5106544
H           3.7163255    -0.4700349    -2.5046165
O           2.3938992    -2.5670739    -1.9769011
C           7.1167041    -1.1763570     0.6195168
H           8.0436064    -1.3219678     1.1662808
C           5.8962903    -1.5581642     1.1788430
H           5.8682179    -2.0065908     2.1684911
C           4.7019730    -1.3735968     0.4838000
H           3.7609533    -1.6757211     0.9342376
C           4.7161380    -0.8065271    -0.7986176
C           5.9421219    -0.4250977    -1.3616153
H           5.9621239     0.0172218    -2.3555249
C           7.1291273    -0.6075737    -0.6552313
H           8.0692728    -0.3068795    -1.1101827
C          -2.2007289    -2.6648966     0.7349674
H          -3.1446771    -3.0779157     1.0785557
C          -1.7912669    -1.3973933     1.1534369
H          -2.4133886    -0.8141869     1.8268523
C          -0.5809508    -0.8701288     0.7122928
H          -0.2650971     0.1173083     1.0432570
C           0.2372433    -1.6064371    -0.1580696
C          -0.1686098    -2.8796569    -0.5835713
H           0.4615015    -3.4432381    -1.2576626
C          -1.3835858    -3.3937552    -0.1299324
H          -1.6915625    -4.3810691    -0.4636879
28
188_C13H12N2O_0-2-3-12 (120,) energy =    -687.3541415
N           1.4250094    -1.1125171    -0.4557596
H           1.5683126    -0.1176762    -0.3526338
C           2.5026235    -1.8591277    -0.8948695
N           3.5802331    -1.0578456    -1.3323814
H           3.3166966    -0.1096317    -1.5760005
O           2.5531562    -3.0780593    -0.8748332
C           7.4465701    -1.1334246     0.3750450
H           8.4425554    -1.1433863     0.8080023
C           6.6744685    -2.2963766     0.3466137
H           7.0713288    -3.2210302     0.7575154
C           5.3981925    -2.3018739    -0.2146216
H           4.8100579    -3.2100372    -0.2569566
C           4.8700943    -1.1141436    -0.7408786
C           5.6442673     0.0547892    -0.7188010
H           5.2420935     0.9774900    -1.1340053
C           6.9239160     0.0411987    -0.1672484
H           7.5089869     0.9570477    -0.1584064
C          -2.5085809    -2.2712842     0.5378574
H          -3.5252651    -2.5521429     0.7968625
C          -2.1196645    -0.9308684     0.5562300
H          -2.8312229    -0.1559989     0.8284101
C          -0.8162682    -0.5741566     0.2220909
H          -0.5224159     0.4741788     0.2334299
C           0.1222258    -1.5561123    -0.1316954
C          -0.2612255    -2.9052819    -0.1461647
H           0.4638624    -3.6634009    -0.4059465
C          -1.5732263    -3.2447279     0.1852730
H          -1.8610757    -4.2926271     0.1701096
28
188_C13H12N2O_0-2-3-12 (135,) energy =    -687.3575628
N           1.3578501    -1.0543879    -0.3563084
H           1.4501331    -0.0492711    -0.3108420
C           2.4974458    -1.7811975    -0.6590248
N           3.5578314    -0.9655442    -1.0786211
H           3.3077405    -0.0108434    -1.3054587
O           2.5884053    -2.9947425    -0.5537630
C           7.5787813    -1.2053285     0.1945461
H           8.6148729    -1.2543173     0.5165910
C           6.7798877    -2.3499355     0.2015476
H           7.1956103    -3.2994083     0.5286719
C           5.4505147    -2.3073466    -0.2177819
H           4.8381208    -3.1990840    -0.2297703
C           4.8985703    -1.0871322    -0.6345433
C           5.6997326     0.0644479    -0.6471679
H           5.2782657     1.0131107    -0.9759258