28
085_C11H16N+_1-0-20-17 (-165,) energy =    -483.3354116
C           3.8539211     1.9312076    -0.3641959
C           2.7021877     2.7243825    -0.4832221
H           2.7979378     3.7849762    -0.7091979
C           1.4322928     2.1710849    -0.3364441
H           0.5539331     2.8013643    -0.4398566
C           1.2912951     0.8078491    -0.0660833
H           0.3027079     0.3728373     0.0455287
C           2.4268600     0.0088342     0.0526260
H           2.3280669    -1.0532083     0.2571946
C           3.7000568     0.5665324    -0.0928162
H           4.5634125    -0.0854634     0.0011943
N           7.9652039     3.2530826     0.3600562
H           8.0693850     2.6427940     1.1798627
H           8.8540529     3.7561332     0.2609231
C           7.7175197     2.3857461    -0.8674213
H           8.5736389     1.7125702    -0.9583018
H           7.7129724     3.0701305    -1.7204675
C           6.3940217     1.6431073    -0.7143787
H           6.4763451     0.9353661     0.1212394
H           6.2428743     1.0409865    -1.6166252
C           5.2139877     2.6082964    -0.4945566
H           5.1709130     3.2767969    -1.3681801
C           5.5112743     3.4902714     0.7439361
H           5.5104951     2.8687187     1.6500443
H           4.7215360     4.2347696     0.8842246
C           6.8348965     4.2397209     0.6241577
H           7.0981023     4.7892068     1.5315287
H           6.8413957     4.9312951    -0.2232003
28
085_C11H16N+_1-0-20-17 (-150,) energy =    -483.3360490
C           3.8411018     1.9565311    -0.3600600
C           2.6867868     2.6868148    -0.6778422
H           2.7802505     3.7052041    -1.0503871
C           1.4202456     2.1217932    -0.5378742
H           0.5390091     2.7012373    -0.7969208
C           1.2878934     0.8116374    -0.0739149
H           0.3028801     0.3670849     0.0316609
C           2.4277854     0.0759208     0.2490658
H           2.3346358    -0.9447145     0.6085178
C           3.6955236     0.6452536     0.1111684
H           4.5637966     0.0463171     0.3723094
N           7.9725316     3.2100311     0.3389736
H           8.0983448     2.5275349     1.0964205
H           8.8607837     3.7174510     0.2585945
C           7.6835246     2.4578255    -0.9541172
H           8.5350132     1.7965312    -1.1332886
H           7.6534476     3.2173952    -1.7404464
C           6.3629871     1.7043969    -0.8269772
H           6.4737203     0.9175404    -0.0698174
H           6.1746058     1.1937904    -1.7772643
C           5.1940527     2.6463239    -0.4748013
H           5.1187761     3.3885811    -1.2832763
C           5.5341355     3.4172157     0.8248525
H           5.5596430     2.7215054     1.6749187
H           4.7497562     4.1468097     1.0504529
C           6.8566787     4.1721122     0.7271509
H           7.1534393     4.6390881     1.6697319
H           6.8382074     4.9355424    -0.0558877
28
085_C11H16N+_1-0-20-17 (-135,) energy =    -483.3367920
C           3.8329733     1.9915242    -0.3390595
C           2.6883134     2.6198237    -0.8468729
H           2.7795283     3.5794763    -1.3514337
C           1.4322999     2.0251766    -0.7235344
H           0.5573409     2.5242900    -1.1293938
C           1.3034620     0.7914247    -0.0845554
H           0.3276825     0.3245361     0.0101038
C           2.4355675     0.1592806     0.4320929
H           2.3428438    -0.8004548     0.9319637
C           3.6905616     0.7565920     0.3093822
H           4.5552789     0.2454584     0.7268870
N           7.9930144     3.1439834     0.3182314
H           8.1270327     2.3993967     1.0131613
H           8.8884088     3.6408517     0.2527533
C           7.6521106     2.5073127    -1.0232955
H           8.4848894     1.8490890    -1.2835266
H           7.6145005     3.3311944    -1.7417161
C           6.3205088     1.7694459    -0.9209323
H           6.4338905     0.9111251    -0.2461697
H           6.0905404     1.3546898    -1.9079249
C           5.1784924     2.6933362    -0.4450077
H           5.0763600     3.4976568    -1.1875984
C           5.5752744     3.3525995     0.8983903
H           5.6166252     2.5930172     1.6910374
H           4.8118422     4.0744613     1.2063782
C           6.9082190     4.0907547     0.8164960
H           7.2427126     4.4775150     1.7824922
H           6.8800579     4.9137093     0.0965491
28
085_C11H16N+_1-0-20-17 (-120,) energy =    -483.3372105
C           3.8297122     2.0390524    -0.2907905
C           2.7170269     2.5469740    -0.9724937
H           2.8180693     3.4480446    -1.5735737
C           1.4783449     1.9090454    -0.8914999
H           0.6262897     2.3165558    -1.4275170
C           1.3369551     0.7522208    -0.1247860
H           0.3742073     0.2541142    -0.0607609
C           2.4391316     0.2368169     0.5602518
H           2.3364142    -0.6634036     1.1590844
C           3.6759366     0.8761853     0.4780406
H           4.5207979     0.4564286     1.0208856
N           8.0185497     3.1078044     0.2840493
H           8.1632527     2.3129971     0.9185999
H           8.9205257     3.5928315     0.2202754
C           7.6164002     2.5752714    -1.0856070
H           8.4262745     1.9241471    -1.4242818
H           7.5681794     3.4497742    -1.7408083
C           6.2747363     1.8554334    -0.9862651
H           6.3908917     0.9413049    -0.3889840
H           5.9945448     1.5287775    -1.9930908
C           5.1683477     2.7537748    -0.3871724
H           5.0401937     3.6105036    -1.0640061
C           5.6308321     3.3115177     0.9791600
H           5.6962676     2.5022961     1.7187758
H           4.8933536     4.0214568     1.3677306
C           6.9715378     4.0346220     0.8891873
H           7.3520197     4.3508778     1.8637720
H           6.9280473     4.9043306     0.2273373
28
085_C11H16N+_1-0-20-17 (-105,) energy =    -483.3370124
C           3.8092853     2.0719311    -0.2338049
C           2.7620118     2.4576637    -1.0801008
H           2.9014381     3.2914043    -1.7650204
C           1.5369476     1.7903729    -1.0498132
H           0.7346799     2.1069777    -1.7097469
C           1.3443267     0.7228512    -0.1723369
H           0.3909819     0.2037266    -0.1453991
C           2.3828597     0.3249191     0.6714803
H           2.2410640    -0.5060723     1.3562554
C           3.6072358     0.9926327     0.6384685
H           4.4029841     0.6598363     1.3017211
N           8.0264952     3.0830186     0.2363403
H           8.1915343     2.2488458     0.8127746
H           8.9294680     3.5647514     0.1624854
C           7.5590168     2.6402535    -1.1445272
H           8.3460347     2.0045674    -1.5581822
H           7.4922139     3.5543220    -1.7415168
C           6.2145770     1.9278062    -1.0303775
H           6.3426076     0.9730048    -0.5022338
H           5.8819504     1.6750274    -2.0423525
C           5.1468914     2.7912130    -0.3172794
H           4.9982095     3.6929213    -0.9288598
C           5.6765133     3.2560792     1.0569271
H           5.7773491     2.4052253     1.7431930
H           4.9646358     3.9438594     1.5250932
C           7.0166886     3.9770684     0.9451091
H           7.4455702     4.2320437     1.9175172
H           6.9484367     4.8852824     0.3394829
28
085_C11H16N+_1-0-20-17 (-90,) energy =    -483.3362793
C           3.7990606     2.0807986    -0.1819246
C           2.8411473     2.3389370    -1.1725226
H           3.0445343     3.0869939    -1.9363708
C           1.6235531     1.6597666    -1.1849092
H           0.8912682     1.8798882    -1.9560895
C           1.3458386     0.7060781    -0.2040637
H           0.3966115     0.1788149    -0.2083015
C           2.2932624     0.4359201     0.7835348
H           2.0852257    -0.3040846     1.5507951
C           3.5131351     1.1149387     0.7922621
H           4.2331182     0.8798728     1.5720208
N           8.0391331     3.0771029     0.1762183
H           8.2407803     2.2073444     0.6844065
H           8.9329718     3.5736037     0.0898969
C           7.5044255     2.7246920    -1.2063484
H           8.2715160     2.1229825    -1.7004143
H           7.4052547     3.6763456    -1.7363319
C           6.1689193     1.9984862    -1.0741015
H           6.3225338     1.0099537    -0.6194707
H           5.7866067     1.8147418    -2.0832975
C           5.1368685     2.8042344    -0.2482926
H           4.9683567     3.7515851    -0.7818102
C           5.7349336     3.1624563     1.1272065
H           5.8907729     2.2613489     1.7343344
H           5.0454168     3.7986265     1.6918785
C           7.0597166     3.9079309     0.9960186
H           7.5365439     4.1010897     1.9602696
H           6.9509897     4.8545290     0.4590036
28
085_C11H16N+_1-0-20-17 (-75,) energy =    -483.3355769
C           3.7874052     2.0779810    -0.1578191
C           2.9286335     2.1857149    -1.2622565
H           3.2061879     2.8217133    -2.1010468
C           1.7143308     1.5035952    -1.2950372
H           1.0607776     1.6067518    -2.1562389
C           1.3365052     0.6978528    -0.2184332
H           0.3888491     0.1681727    -0.2386854
C           2.1805281     0.5828256     0.8848009
H           1.8936051    -0.0374962     1.7288502
C           3.3994545     1.2654517     0.9142590
H           4.0325324     1.1560771     1.7900651
N           8.0404500     3.0713784     0.1164824
H           8.2714774     2.1640558     0.5393803
H           8.9254330     3.5842047     0.0343230
C           7.4478539     2.8308559    -1.2662710
H           8.1953102     2.2781984    -1.8410766
H           7.3213843     3.8223227    -1.7105131
C           6.1226946     2.0853619    -1.1384246
H           6.2985772     1.0643805    -0.7720322
H           5.7020458     1.9807539    -2.1433904
C           5.1223543     2.8118871    -0.2061567
H           4.9342626     3.8030448    -0.6470250
C           5.7794425     3.0471612     1.1668875
H           5.9723081     2.0933039     1.6755392
H           5.1142044     3.6187857     1.8225898
C           7.0908825     3.8168393     1.0456555
H           7.6066505     3.9299081     2.0025131
H           6.9519653     4.8055360     0.5992052
28
085_C11H16N+_1-0-20-17 (-60,) energy =    -483.3347891
C           3.7844801     2.0788718    -0.1481631
C           3.0226322     2.0128906    -1.3255349
H           3.3669997     2.5177290    -2.2259625
C           1.8083887     1.3312555    -1.3568346
H           1.2324007     1.3002358    -2.2770189
C           1.3319461     0.6963122    -0.2073998
H           0.3851542     0.1651917    -0.2289064
C           2.0777465     0.7543660     0.9679198
H           1.7156695     0.2683288     1.8691298
C           3.2962108     1.4384344     0.9970349
H           3.8499439     1.4649835     1.9304900
N           8.0478787     3.0625571     0.0752028
H           8.2928030     2.1199897     0.4024177
H           8.9293163     3.5843308     0.0138921
C           7.4099002     2.9523257    -1.3033108
H           8.1380993     2.4595175    -1.9523825
H           7.2673827     3.9808274    -1.6471565
C           6.0917935     2.1907998    -1.2035113
H           6.2833392     1.1417730    -0.9378482
H           5.6470505     2.1751459    -2.2025555
C           5.1182360     2.8214473    -0.1779133
H           4.9169532     3.8499198    -0.5190228
C           5.8199257     2.9322156     1.1881072
H           6.0217412     1.9341168     1.6004405
H           5.1802837     3.4446191     1.9142798
C           7.1271105     3.7128208     1.0990737
H           7.6715077     3.7363723     2.0463661
H           6.9739834     4.7388974     0.7529568
28
085_C11H16N+_1-0-20-17 (-45,) energy =    -483.3334085
C           3.7758394     2.0744606    -0.1490728
C           3.1052564     1.8147381    -1.3551783
H           3.5103113     2.1688483    -2.2993913
C           1.8921082     1.1289340    -1.3713494
H           1.3913978     0.9476547    -2.3178957
C           1.3233961     0.6791260    -0.1786657
H           0.3792248     0.1430986    -0.1899441
C           1.9774678     0.9273858     1.0261190
H           1.5465904     0.5852954     1.9625126
C           3.1928425     1.6158595     1.0400373
H           3.6715108     1.7873761     1.9987173
N           8.0504000     3.0365374     0.0423221
H           8.2874960     2.0623416     0.2666613
H           8.9380753     3.5504598     0.0128621
C           7.3762426     3.0769500    -1.3210777
H           8.0819302     2.6523900    -2.0394581
H           7.2326451     4.1369180    -1.5496754
C           6.0567389     2.3139984    -1.2697520
H           6.2497431     1.2420772    -1.1230087
H           5.6001796     2.4079410    -2.2581745
C           5.1059388     2.8332164    -0.1641606
H           4.8877286     3.8878030    -0.4019252
C           5.8436287     2.8256447     1.1895472
H           6.0275480     1.7937831     1.5193323
H           5.2335696     3.2955116     1.9672561
C           7.1606571     3.5929665     1.1439591
H           7.7236226     3.5176561     2.0775693
H           7.0153173     4.6498227     0.9029103
28
085_C11H16N+_1-0-20-17 (-30,) energy =    -483.3325103
C           3.7778165     2.0517430    -0.1459364
C           3.2050414     1.6006711    -1.3452234
H           3.6944336     1.7779433    -2.2975673
C           1.9869710     0.9203741    -1.3527889
H           1.5693470     0.5834045    -2.2970241
C           1.3104116     0.6751996    -0.1586260
H           0.3630650     0.1447272    -0.1634406
C           1.8622705     1.1217572     1.0411863
H           1.3467110     0.9430434     1.9802284
C           3.0805671     1.8020271     1.0461078
H           3.4708835     2.1381734     2.0012921
N           8.0544019     3.0285700     0.0064134
H           8.2975398     2.0365020     0.1171920
H           8.9408000     3.5455553     0.0071521
C           7.3392348     3.2161523    -1.3223307
H           8.0220751     2.8756119    -2.1046434
H           7.1892498     4.2943715    -1.4286378
C           6.0219425     2.4481727    -1.3204784
H           6.2186164     1.3672487    -1.3028037
H           5.5459505     2.6577264    -2.2820849
C           5.0956659     2.8370026    -0.1448961
H           4.8567812     3.9069110    -0.2627888
C           5.8781215     2.6913679     1.1804405
H           6.0642521     1.6295266     1.3931462
H           5.2982622     3.0764634     2.0235415
C           7.1946509     3.4605874     1.1838347
H           7.7803548     3.2854997     2.0896707
H           7.0448178     4.5372033     1.0622153
28
085_C11H16N+_1-0-20-17 (-15,) energy =    -483.3332588
C           3.7899205     2.0387800    -0.1374625
C           3.3126305     1.4062388    -1.2936586
H           3.8871622     1.4174584    -2.2141810
C           2.0878024     0.7349286    -1.2927081
H           1.7457019     0.2477856    -2.2010904
C           1.3089910     0.6932634    -0.1381570
H           0.3563962     0.1722182    -0.1372857
C           1.7611137     1.3358630     1.0153342
H           1.1595429     1.3235057     1.9194831
C           2.9843755     2.0037944     1.0122826
H           3.2948124     2.5142506     1.9199588
N           8.0599590     3.0436349    -0.0388850
H           8.3239827     2.0507524    -0.0389559
H           8.9369322     3.5758243    -0.0127238
C           7.2990719     3.3505301    -1.3196430
H           7.9619362     3.1022354    -2.1522433
H           7.1293388     4.4309704    -1.3130981
C           5.9938064     2.5628969    -1.3545401
H           6.2094837     1.4888685    -1.4384499
H           5.4835678     2.8491456    -2.2794627
C           5.1001460     2.8321322    -0.1255764
H           4.8529920     3.9058752    -0.1254325
C           5.9275699     2.5465957     1.1528482
H           6.1348783     1.4700268     1.2269378
H           5.3675802     2.8103815     2.0537118
C           7.2335799     3.3320315     1.2052112
H           7.8508949     3.0678638     2.0674727
H           7.0664733     4.4129974     1.2072505
28
085_C11H16N+_1-0-20-17 (0,) energy =    -483.3345521
C           3.7877295     2.0439943    -0.1347301
C           3.3959082     1.2511478    -1.2201383
H           4.0362286     1.1389111    -2.0895089
C           2.1697165     0.5805753    -1.2096818
H           1.8882003    -0.0320058    -2.0611449
C           1.3118756     0.7004514    -0.1185441
H           0.3585494     0.1807516    -0.1121041
C           1.6828441     1.5028495     0.9629280
H           1.0166438     1.6163800     1.8130861
C           2.9056211     2.1697772     0.9504529
H           3.1640441     2.8092973     1.7919311
N           8.0524302     3.0535699    -0.0747783
H           8.3307069     2.0694226    -0.1720379
H           8.9223222     3.5954068    -0.0231325
C           7.2553080     3.4617233    -1.3058826
H           7.9014110     3.2976750    -2.1718699
H           7.0714553     4.5345980    -1.1997730
C           5.9606860     2.6586449    -1.3760710
H           6.1973840     1.5992151    -1.5447356
H           5.4160816     2.9997387    -2.2627547
C           5.1024964     2.8215975    -0.1069977
H           4.8614144     3.8916287    -0.0068056
C           5.9583815     2.4225795     1.1215505
H           6.1751812     1.3458867     1.0861858
H           5.4088879     2.5909273     2.0521022
C           7.2592591     3.2133953     1.2148844
H           7.9046605     2.8762518     2.0298898
H           7.0826143     4.2873295     1.3237641
28
085_C11H16N+_1-0-20-17 (15,) energy =    -483.3353794
C           3.7714228     2.0594241    -0.1240714
C           3.4590808     1.1206243    -1.1143309
H           4.1586417     0.8987853    -1.9147327
C           2.2333510     0.4492954    -1.0975179
H           2.0085134    -0.2746322    -1.8752757
C           1.3027370     0.7094445    -0.0934728
H           0.3499106     0.1888408    -0.0833595
C           1.5994112     1.6513775     0.8945444
H           0.8761361     1.8710562     1.6743229
C           2.8208151     2.3207172     0.8748717
H           3.0319610     3.0656897     1.6400544
N           8.0362807     3.0535078    -0.1078221
H           8.3134728     2.0822227    -0.2953506
H           8.9065733     3.5922000    -0.0347322
C           7.2062910     3.5606621    -1.2800449
H           7.8310147     3.4734576    -2.1724978
H           7.0217929     4.6197360    -1.0789971
C           5.9135906     2.7574233    -1.3817054
H           6.1579906     1.7176680    -1.6371648
H           5.3385037     3.1564755    -2.2239825
C           5.0935424     2.8182760    -0.0794445
H           4.8624559     3.8773346     0.1125296
C           5.9758356     2.3211234     1.0929974
H           6.1868240     1.2498503     0.9694745
H           5.4428397     2.4191073     2.0437870
C           7.2815118     3.1010348     1.2145687
H           7.9512325     2.6963779     1.9776249
H           7.1102287     4.1616124     1.4199421
28
085_C11H16N+_1-0-20-17 (30,) energy =    -483.3359453
C           3.7775594     2.0653729    -0.1054520
C           3.5485502     0.9972987    -0.9823006
H           4.3156998     0.6725349    -1.6798163
C           2.3237572     0.3259918    -0.9801456
H           2.1628767    -0.4976088    -1.6696148
C           1.3115368     0.7123989    -0.1023255
H           0.3589767     0.1911943    -0.1044039
C           1.5273384     1.7779641     0.7738684
H           0.7426191     2.0934082     1.4551436
C           2.7491280     2.4485161     0.7678588
H           2.9023875     3.2866248     1.4452235
N           8.0400185     3.0508377    -0.1564170
H           8.3045452     2.0972410    -0.4321684
H           8.9156894     3.5788950    -0.0710506
C           7.1726483     3.6545932    -1.2539022
H           7.7666608     3.6408760    -2.1711796
H           6.9997266     4.6936186    -0.9594875
C           5.8735531     2.8641119    -1.3763162
H           6.1056610     1.8515258    -1.7307986
H           5.2668575     3.3333979    -2.1579427
C           5.1017041     2.8157994    -0.0428027
H           4.8784943     3.8545604     0.2424834
C           6.0211031     2.2265922     1.0560178
H           6.2232880     1.1676271     0.8438106
H           5.5178066     2.2528447     2.0278403
C           7.3337566     2.9926060     1.1923675
H           8.0294632     2.5276398     1.8954950
H           7.1741960     4.0334732     1.4881098
28
085_C11H16N+_1-0-20-17 (45,) energy =    -483.3366902
C           3.7726088     2.0673310    -0.0552211
C           3.6253997     0.8879323    -0.7987577
H           4.4628402     0.4740283    -1.3557247
C           2.4019837     0.2176786    -0.8336873
H           2.3051123    -0.6938119    -1.4162397
C           1.3073059     0.7171587    -0.1265804
H           0.3549549     0.1963982    -0.1568071
C           1.4419082     1.8911058     0.6157415
H           0.5946593     2.2907856     1.1651289
C           2.6653528     2.5604682     0.6477021
H           2.7579219     3.4798853     1.2221583
N           8.0291134     3.0342182    -0.2198556
H           8.2646241     2.1015697    -0.5804139
H           8.9161719     3.5435399    -0.1384679
C           7.1184970     3.7318160    -1.2225525
H           7.6666668     3.7843014    -2.1666073
H           6.9763886     4.7461980    -0.8389911
C           5.8018651     2.9698664    -1.3411026
H           5.9922740     1.9897400    -1.7967329
H           5.1613762     3.5147523    -2.0425360
C           5.0966135     2.8132718     0.0232767
H           4.8861192     3.8239606     0.4014175
C           6.0629050     2.1373473     1.0268963
H           6.2454011     1.0960221     0.7278103
H           5.6072174     2.0941412     2.0214983
C           7.3889830     2.8814233     1.1543026
H           8.1127847     2.3602350     1.7860400
H           7.2560386     3.8986402     1.5337176
28
085_C11H16N+_1-0-20-17 (60,) energy =    -483.3371826
C           3.7814346     2.0633171    -0.0063156
C           3.6932764     0.7963259    -0.6013742
H           4.5802438     0.3126127    -1.0062814
C           2.4691850     0.1330008    -0.6834132
H           2.4177481    -0.8475651    -1.1475294
C           1.3143005     0.7277387    -0.1712926
H           0.3613029     0.2112971    -0.2358673
C           1.3904934     1.9875952     0.4229052
H           0.4973034     2.4578666     0.8234451
C           2.6165350     2.6495204     0.5036484
H           2.6658970     3.6321520     0.9677912
N           8.0222227     3.0404877    -0.2874681
H           8.2300895     2.1355241    -0.7269489
H           8.9169263     3.5377448    -0.2159697
C           7.0672855     3.8149885    -1.1872290
H           7.5659287     3.9341613    -2.1524864
H           6.9554597     4.7990441    -0.7230261
C           5.7382949     3.0724875    -1.2905035
H           5.8842823     2.1312230    -1.8368183
H           5.0625938     3.6790914    -1.9023642
C           5.1075004     2.8006762     0.0944827
H           4.9112367     3.7761994     0.5617865
C           6.1214115     2.0549345     0.9932497
H           6.2912560     1.0383758     0.6137703
H           5.7178925     1.9398583     2.0045823
C           7.4534256     2.7910660     1.1038032
H           8.2076259     2.2278821     1.6593265
H           7.3426198     3.7790009     1.5599062
28
085_C11H16N+_1-0-20-17 (75,) energy =    -483.3369412
C           3.8828010     1.8194196    -0.3748147
C           3.1535411     1.9841619     0.8115122
H           3.5787089     2.5270882     1.6529813
C           1.8717220     1.4483057     0.9379757
H           1.3200181     1.5860881     1.8632838
C           1.2997292     0.7405576    -0.1206323
H           0.3009162     0.3260600    -0.0223988
C           2.0162338     0.5709521    -1.3058279
H           1.5782422     0.0250067    -2.1361895
C           3.2975227     1.1089820    -1.4306321
H           3.8458310     0.9770309    -2.3610511
N           7.8050980     3.5409412     0.4630306
H           7.5921182     3.6222520     1.4647121
H           8.7583594     3.9007171     0.3416544
C           7.7505419     2.0703538     0.0674764
H           8.4810735     1.5466285     0.6892975
H           8.0807428     2.0319938    -0.9745663
C           6.3299754     1.5408713     0.2410490
H           6.0714600     1.5106286     1.3085080
H           6.3143041     0.5028752    -0.1066667
C           5.2875867     2.3805389    -0.5353498
H           5.5483558     2.3127374    -1.6015864
C           5.4045513     3.8663586    -0.1330483
H           5.0957004     4.0130490     0.9100780
H           4.7311245     4.4795087    -0.7408496
C           6.8211061     4.4019485    -0.3194355
H           6.9401194     5.4271601     0.0401332
H           7.1479662     4.3524606    -1.3620378
28
085_C11H16N+_1-0-20-17 (90,) energy =    -483.3361645
C           3.8622515     1.8658314    -0.3622113
C           3.0405631     2.1661842     0.7322284
H           3.3734905     2.8503299     1.5083248
C           1.7737769     1.5906071     0.8492105
H           1.1487152     1.8372417     1.7024650
C           1.3107896     0.7069709    -0.1256101
H           0.3241636     0.2626886    -0.0348606
C           2.1201187     0.4021956    -1.2215494
H           1.7653985    -0.2782000    -1.9900785
C           3.3833303     0.9803310    -1.3381116
H           4.0014904     0.7461004    -2.2027211
N           7.8423732     3.4904652     0.4395443
H           7.6828910     3.4986805     1.4543704
H           8.7934771     3.8474303     0.2950208
C           7.7447625     2.0544646    -0.0607297
H           8.4937619     1.4758702     0.4859166
H           8.0263364     2.0896337    -1.1170563
C           6.3246246     1.5328673     0.1383928
H           6.1108870     1.4253986     1.2109014
H           6.2763297     0.5247428    -0.2855716
C           5.2615913     2.4444036    -0.5222371
H           5.4829238     2.4663299    -1.5997878
C           5.4198770     3.8866102    -0.0010073
H           5.1807593     3.9460354     1.0686770
H           4.7221443     4.5592100    -0.5106901
C           6.8322727     4.4193519    -0.2227536
H           6.9848861     5.4124780     0.2072064
H           7.1032963     4.4466963    -1.2820027
28
085_C11H16N+_1-0-20-17 (105,) energy =    -483.3355308
C           3.8538855     1.8971697    -0.3452836
C           2.9478541     2.3273683     0.6312664
H           3.2034077     3.1315777     1.3151249
C           1.6884611     1.7324498     0.7440361
H           0.9985819     2.0818329     1.5066126
C           1.3174308     0.7017602    -0.1177485
H           0.3374414     0.2424323    -0.0302969
C           2.2104967     0.2692731    -1.1009551
H           1.9280648    -0.5247438    -1.7859680
C           3.4644470     0.8655642    -1.2132223
H           4.1454906     0.5318520    -1.9941729
N           7.8718765     3.4531932     0.4278648
H           7.7571020     3.3795889     1.4461128
H           8.8172374     3.8199484     0.2706584
C           7.7452609     2.0625295    -0.1814736
H           8.5129684     1.4398808     0.2848458
H           7.9821877     2.1817821    -1.2426005
C           6.3318634     1.5302512     0.0352627
H           6.1600296     1.3429679     1.1043903
H           6.2636269     0.5566768    -0.4599723
C           5.2474825     2.4925009    -0.5092598
H           5.4300887     2.6041482    -1.5892273
C           5.4342838     3.8830033     0.1256547
H           5.2445997     3.8461762     1.2066890
H           4.7183479     4.5997027    -0.2902596
C           6.8372936     4.4326523    -0.1119885
H           7.0103880     5.3867375     0.3921271
H           7.0628708     4.5481788    -1.1758873
28
085_C11H16N+_1-0-20-17 (120,) energy =    -483.3348251
C           3.8510182     1.8991028    -0.3305234
C           2.8724636     2.4483442     0.5064094
H           3.0727734     3.3426197     1.0885122
C           1.6110680     1.8560218     0.6137445
H           0.8675035     2.2976257     1.2707031
C           1.3069788     0.7110591    -0.1194922
H           0.3260149     0.2529616    -0.0368885
C           2.2698770     0.1620498    -0.9697062
H           2.0405377    -0.7220979    -1.5572192
C           3.5260866     0.7542297    -1.0752731
H           4.2552334     0.3259847    -1.7602818
N           7.8897314     3.4223736     0.4180192
H           7.8086794     3.2639090     1.4298547
H           8.8270364     3.8094311     0.2612315
C           7.7500998     2.0864166    -0.2997993
H           8.5370269     1.4338869     0.0867078
H           7.9486198     2.2945696    -1.3550790
C           6.3493666     1.5246739    -0.0772624
H           6.2184263     1.2501949     0.9787847
H           6.2766822     0.5925049    -0.6449050
C           5.2375109     2.5147663    -0.5028683
H           5.3788617     2.7132824    -1.5774290
C           5.4401245     3.8529284     0.2311626
H           5.2787118     3.7295214     1.3108536
H           4.7125296     4.5974176    -0.1084187
C           6.8311528     4.4315634    -0.0062265
H           7.0138025     5.3437049     0.5672909
H           7.0200495     4.6346159    -1.0641392
28
085_C11H16N+_1-0-20-17 (135,) energy =    -483.3335952
C           3.8513457     1.8953899    -0.3136061
C           2.8138992     2.5479734     0.3654598
H           2.9728736     3.5157373     0.8302274
C           1.5480392     1.9666712     0.4723812
H           0.7631704     2.4908999     1.0096547
C           1.2922441     0.7265009    -0.1085061
H           0.3081585     0.2750656    -0.0265961
C           2.3105793     0.0733866    -0.8051496
H           2.1220321    -0.8876624    -1.2745575
C           3.5727043     0.6546484    -0.9093447
H           4.3371225     0.1333157    -1.4798505
N           7.9088698     3.3873598     0.4201357
H           7.8534647     3.1358285     1.4147455
H           8.8390900     3.7962224     0.2770647
C           7.7578665     2.1242536    -0.4150556