21
277_C7H10N2O2_10-0-1-3 (-165,) energy =    -532.7119203
C           2.2088362    -0.5139141    -1.0396103
N           0.9271590    -0.4484404    -0.5545304
H           0.7956635    -0.0438892     0.3638003
C          -0.1152977    -1.3131265    -1.0751636
H          -1.0740426    -0.7840300    -1.0898496
H          -0.2289191    -2.2295724    -0.4783322
H           0.1560015    -1.5933382    -2.0935867
C           3.1432951     0.7701137     1.0364520
O           1.9702583     0.8781572     1.7430982
H           2.1528450     1.3208899     2.5847358
C           3.2281987     0.1505355    -0.2116236
N           4.5643487     0.2423798    -0.6008677
C           5.1525400    -0.2602449    -1.8384114
H           6.2120525     0.0087557    -1.8327279
H           4.6622685     0.1825795    -2.7066580
H           5.0422981    -1.3433262    -1.9079154
C           5.2682381     0.8868335     0.3667214
H           6.3293814     1.0578712     0.2516101
C           4.4214137     1.2338521     1.4078827
H           4.6958574     1.7558310     2.3151727
O           2.4894582    -1.0970891    -2.0925178
21
277_C7H10N2O2_10-0-1-3 (-150,) energy =    -532.7096931
C           2.1847675    -0.4292870    -1.1123460
N           0.8824479    -0.3098349    -0.6754972
H           0.7643173     0.1171193     0.2359428
C          -0.0874368    -1.3413609    -1.0142122
H          -1.0989269    -0.9243734    -0.9875984
H          -0.0394953    -2.1974870    -0.3253010
H           0.1251424    -1.6946247    -2.0238256
C           3.1126504     0.7667699     1.0192344
O           1.9304687     0.8937892     1.7058628
H           2.1079085     1.3229758     2.5556788
C           3.2042982     0.1796287    -0.2450708
N           4.5512604     0.2414942    -0.6046193
C           5.1494591    -0.2448253    -1.8438740
H           6.2145051    -0.0004671    -1.8141052
H           4.6853657     0.2313506    -2.7090833
H           5.0147857    -1.3227583    -1.9423673
C           5.2539723     0.8324811     0.3964720
H           6.3227744     0.9693275     0.3095844
C           4.3968078     1.1760851     1.4305409
H           4.6688935     1.6601276     2.3593029
O           2.4779232    -1.0450148    -2.1417070
21
277_C7H10N2O2_10-0-1-3 (-135,) energy =    -532.7056846
C           2.1778254    -0.3449874    -1.2040390
N           0.8565271    -0.2030807    -0.8032140
H           0.7548061     0.2807142     0.0828357
C          -0.0308717    -1.3566202    -0.9293710
H          -1.0737231    -1.0254723    -0.9145408
H           0.1208063    -2.0864804    -0.1204674
H           0.1687635    -1.8437694    -1.8847776
C           3.0862504     0.7512423     0.9888328
O           1.8934765     0.8948359     1.6518128
H           2.0631306     1.3049173     2.5127465
C           3.1913004     0.2032594    -0.2932836
N           4.5492029     0.2373855    -0.6182798
C           5.1624568    -0.2253181    -1.8591825
H           6.2327607    -0.0118161    -1.7980979
H           4.7321388     0.2923052    -2.7182330
H           4.9999930    -1.2950443    -1.9963972
C           5.2437583     0.7697587     0.4196124
H           6.3184663     0.8738074     0.3653685
C           4.3716779     1.1042361     1.4445351
H           4.6355466     1.5455795     2.3966109
O           2.4815385    -0.9664425    -2.2251543
21
277_C7H10N2O2_10-0-1-3 (-120,) energy =    -532.7036078
C           2.4064974    -0.1190838    -1.2355539
N           1.0819460    -0.1661865    -0.5702254
H           0.4835628     0.4592693    -1.1140724
C           0.4960979    -1.5234777    -0.6542683
H           0.4696247    -1.9020733    -1.6828998
H          -0.5181576    -1.4974549    -0.2463743
H           1.0953939    -2.2044245    -0.0424506
C           3.3314146     0.6200484     1.0345439
O           2.2012722     0.6604069     1.7508331
H           1.4893255     0.3952268     1.0994893
C           3.4428319     0.2591018    -0.3315844
N           4.8005626     0.3657059    -0.6688850
C           5.3869182     0.0877720    -1.9715244
H           6.4644783     0.2552554    -1.9003140
H           4.9636286     0.7431486    -2.7362159
H           5.1973477    -0.9461121    -2.2702712
C           5.4825848     0.7650280     0.4316333
H           6.5546590     0.9047801     0.3858622
C           4.6199443     0.9363460     1.5063871
H           4.8834614     1.2504920     2.5054630
O           2.5197722    -0.3832930    -2.4278412
21
277_C7H10N2O2_10-0-1-3 (-105,) energy =    -532.7043608
C           2.3763391    -0.0010426    -1.3062663
N           1.0585399    -0.1050985    -0.6544347
H           0.4124614     0.3697372    -1.2875473
C           0.6225025    -1.5188229    -0.5608048
H           0.6443031    -2.0252508    -1.5341937
H          -0.3932899    -1.5517195    -0.1571031
H           1.2844532    -2.0495696     0.1298141
C           3.2991152     0.5942222     1.0053482
O           2.1575525     0.6630001     1.7053200
H           1.4417883     0.4856933     1.0332340
C           3.4183147     0.2767867    -0.3689989
N           4.7825348     0.3458927    -0.6837897
C           5.3765920     0.0858306    -1.9866454
H           6.4577529     0.2179077    -1.8985390
H           4.9803276     0.7726448    -2.7373368
H           5.1619251    -0.9347526    -2.3149883
C           5.4634304     0.6777386     0.4402833
H           6.5407534     0.7754773     0.4149962
C           4.5907309     0.8451681     1.5073869
H           4.8493203     1.1171250     2.5200515
O           2.4839925    -0.1219261    -2.5224028
21
277_C7H10N2O2_10-0-1-3 (-90,) energy =    -532.7055138
C           2.3561237     0.0991993    -1.3714856
N           1.0468832    -0.0696178    -0.7499621
H           0.3774264     0.2660361    -1.4434775
C           0.7319829    -1.4887615    -0.4594188
H           0.8121879    -2.1252344    -1.3507072
H          -0.2863286    -1.5515327    -0.0655624
H           1.4190879    -1.8606867     0.3051706
C           3.2719719     0.5600736     0.9740764
O           2.1200102     0.6501281     1.6626985
H           1.4046794     0.5616236     0.9802603
C           3.3996431     0.2850819    -0.4052121
N           4.7670336     0.3278885    -0.7016228
C           5.3694580     0.0855712    -2.0041998
H           6.4509345     0.2064598    -1.9058924
H           4.9818855     0.7878820    -2.7441409
H           5.1508423    -0.9286420    -2.3515811
C           5.4445528     0.5971621     0.4422521
H           6.5245608     0.6602725     0.4324702
C           4.5627425     0.7548621     1.5029465
H           4.8142008     0.9879710     2.5270855
O           2.4714515     0.1234135    -2.5932010
21
277_C7H10N2O2_10-0-1-3 (-75,) energy =    -532.7062902
C           2.3334715     0.1882129    -1.4261062
N           1.0358517    -0.0731787    -0.8571935
H           0.3608788     0.1543515    -1.5864898
C           0.8084908    -1.4594882    -0.3896850
H           0.9591747    -2.2004676    -1.1864340
H          -0.2185568    -1.5403101    -0.0225852
H           1.4850318    -1.6853990     0.4367596
C           3.2421602     0.5281726     0.9439532
O           2.0828253     0.6393231     1.6275344
H           1.3679807     0.6208592     0.9480378
C           3.3774843     0.2823152    -0.4360328
N           4.7457892     0.3128525    -0.7197839
C           5.3554822     0.0768258    -2.0204115
H           6.4335423     0.2249248    -1.9234159
H           4.9468220     0.7649557    -2.7612889
H           5.1645489    -0.9461966    -2.3612872
C           5.4200975     0.5334848     0.4378406
H           6.5012583     0.5690246     0.4396956
C           4.5304904     0.6819012     1.4925867
H           4.7743961     0.8875093     2.5244505
O           2.4615826     0.3726818    -2.6336581
21
277_C7H10N2O2_10-0-1-3 (-60,) energy =    -532.7059293
C           2.3316537     0.2150413    -1.3882251
N           1.0592605    -0.1526969    -0.8724614
H           0.3803999    -0.0071911    -1.6165881
C           0.8868414    -1.4727069    -0.2342141
H           1.1327788    -2.3016860    -0.9118746
H          -0.1583358    -1.5718674     0.0724485
H           1.5092899    -1.5489603     0.6574595
C           3.2796754     0.4876321     0.9785381
O           2.1295304     0.6354376     1.6815895
H           1.4012911     0.6655454     1.0256716
C           3.3928626     0.2407956    -0.3992341
N           4.7562972     0.2574724    -0.6997205
C           5.3470931    -0.0182392    -2.0017522
H           6.4078745     0.2394300    -1.9592833
H           4.8453417     0.5756844    -2.7655119
H           5.2489556    -1.0786429    -2.2624382
C           5.4510075     0.4532483     0.4520216
H           6.5325615     0.4613387     0.4414216
C           4.5761948     0.6132838     1.5160920
H           4.8331878     0.8161182     2.5453673
O           2.4522069     0.5407847    -2.5678326
21
277_C7H10N2O2_10-0-1-3 (-45,) energy =    -532.7043241
C           2.3189615     0.2590322    -1.4013839
N           1.0719192    -0.2306882    -0.9843539
H           0.4133487    -0.1393572    -1.7524038
C           0.9050945    -1.4677611    -0.2075458
H           1.2525529    -2.3556908    -0.7536703
H          -0.1596511    -1.5911823     0.0104120
H           1.4368239    -1.4090450     0.7412174
C           3.2749920     0.4748590     0.9825274
O           2.1323915     0.6362554     1.7059717
H           1.3961265     0.7312641     1.0729912
C           3.3769351     0.2435421    -0.3952435
N           4.7377912     0.2551812    -0.7024617
C           5.3187392    -0.0093350    -2.0112678
H           6.3835230     0.2311622    -1.9690707
H           4.8236772     0.6064424    -2.7620482
H           5.2039242    -1.0640048    -2.2881959
C           5.4436202     0.4210075     0.4488504
H           6.5249529     0.4124584     0.4324054
C           4.5753486     0.5741389     1.5176678
H           4.8373105     0.7601069     2.5488983
O           2.4562084     0.7052469    -2.5406045
21
277_C7H10N2O2_10-0-1-3 (-30,) energy =    -532.7020048
C           2.3004466     0.2862214    -1.4156663
N           1.0944949    -0.3257759    -1.1003256
H           0.4566467    -0.2630867    -1.8861084
C           0.9031524    -1.4710752    -0.2081911
H           1.3937750    -2.3800097    -0.5827896
H          -0.1705950    -1.6655114    -0.1360544
H           1.2746130    -1.2640209     0.7949255
C           3.2669706     0.4611041     0.9885441
O           2.1349873     0.6305205     1.7361574
H           1.3990109     0.8205404     1.1297948
C           3.3531216     0.2545449    -0.3917610
N           4.7112446     0.2548413    -0.7080671
C           5.2810579     0.0176772    -2.0270995
H           6.3516207     0.2298433    -1.9805010
H           4.8000565     0.6695554    -2.7562095
H           5.1397263    -1.0245356    -2.3369028
C           5.4301126     0.3849688     0.4411457
H           6.5108386     0.3611255     0.4136464
C           4.5722629     0.5281086     1.5180967
H           4.8418652     0.6906569     2.5513681
O           2.4456110     0.8257992    -2.5145388
21
277_C7H10N2O2_10-0-1-3 (-15,) energy =    -532.6994682
C           2.3013411     0.2909859    -1.4216503
N           1.1491370    -0.4303420    -1.1935004
H           0.5142572    -0.3689290    -1.9801507
C           0.8969358    -1.4719763    -0.2025072
H           1.4204471    -2.4079027    -0.4413784
H          -0.1775403    -1.6749988    -0.1913006
H           1.1922429    -1.1581240     0.7984959
C           3.2756500     0.4535246     0.9997049
O           2.1525025     0.6223318     1.7684702
H           1.4296822     0.9205331     1.1933638
C           3.3494098     0.2627033    -0.3818476
N           4.7049777     0.2549040    -0.7068849
C           5.2653182     0.0307738    -2.0323716
H           6.3369696     0.2381571    -1.9899010
H           4.7827679     0.6937767    -2.7503190
H           5.1183659    -1.0072435    -2.3536681
C           5.4351489     0.3634021     0.4387169
H           6.5152964     0.3318358     0.4016060
C           4.5856318     0.5010104     1.5215125
H           4.8617890     0.6499229     2.5551371
O           2.4424984     0.9001256    -2.4854459
21
277_C7H10N2O2_10-0-1-3 (0,) energy =    -532.6995768
C           2.7535094    -1.4829257    -0.8546613
N           1.3906017    -1.5432236    -0.9777336
H           1.0812877    -2.4686786    -1.2475287
C           0.3767885    -0.5472005    -0.6811029
H          -0.0169756    -0.6297331     0.3375510
H          -0.4467294    -0.6610194    -1.3944048
H           0.7996183     0.4517661    -0.8014899
C           3.0879310     0.5843319     0.7438552
O           1.9853435     0.4447457     1.5439420
H           2.0781099     1.0566947     2.2889818
C           3.3742923    -0.2405248    -0.3455114
N           4.6129109     0.1778950    -0.8348846
C           5.3260532    -0.3914585    -1.9711729
H           6.2193100     0.2131773    -2.1453578
H           4.7012228    -0.3696749    -2.8689628
H           5.5991461    -1.4273976    -1.7694097
C           5.0531023     1.2362781    -0.1038895
H           5.9838139     1.7270316    -0.3522673
C           4.1375374     1.5193441     0.8943497
H           4.2169293     2.3000698     1.6396702
O           3.4456625    -2.4385413    -1.2231365
21
277_C7H10N2O2_10-0-1-3 (15,) energy =    -532.7003219
C           2.7507674    -1.4867120    -0.8587180
N           1.3837388    -1.5787453    -0.8558493
H           1.0701842    -2.4888941    -1.1682604
C           0.3842852    -0.5369608    -0.6913384
H          -0.0547899    -0.5307595     0.3114732
H          -0.4115067    -0.6856807    -1.4297937
H           0.8387029     0.4398691    -0.8682674
C           3.0911811     0.5663931     0.7490453
O           1.9903798     0.4202437     1.5485879
H           2.0796149     1.0319542     2.2943362
C           3.3771711    -0.2520014    -0.3463491
N           4.6106632     0.1767248    -0.8408469
C           5.3226396    -0.3805758    -1.9841743
H           6.2165828     0.2251777    -2.1511561
H           4.6975157    -0.3481858    -2.8813406
H           5.5939969    -1.4190989    -1.7947766
C           5.0492268     1.2312704    -0.1043852
H           5.9775737     1.7265776    -0.3526801
C           4.1373275     1.5043981     0.9005408
H           4.2173041     2.2810840     1.6499918
O           3.4318607    -2.4230765    -1.2926093
21
277_C7H10N2O2_10-0-1-3 (30,) energy =    -532.7003916
C           2.7463997    -1.4647076    -0.8532819
N           1.3840877    -1.5951035    -0.7226458
H           1.0801785    -2.5003049    -1.0607001
C           0.3823648    -0.5378336    -0.7014349
H          -0.1498605    -0.4951957     0.2541309
H          -0.3430863    -0.7019767    -1.5072161
H           0.8625038     0.4285123    -0.8639285
C           3.0869826     0.5798570     0.7576346
O           1.9773834     0.4390149     1.5439950
H           2.0651402     1.0440236     2.2954919
C           3.3797236    -0.2396036    -0.3362558
N           4.6125521     0.1940195    -0.8294369
C           5.3346084    -0.3637131    -1.9664731
H           6.2106819     0.2639629    -2.1474591
H           4.7045403    -0.3649465    -2.8599993
H           5.6366275    -1.3912612    -1.7631034
C           5.0473369     1.2467032    -0.0890049
H           5.9773855     1.7418285    -0.3313595
C           4.1317144     1.5179525     0.9136775
H           4.2077392     2.2956311     1.6624742
O           3.4123865    -2.3779767    -1.3537331
21
277_C7H10N2O2_10-0-1-3 (45,) energy =    -532.6998319
C           2.7469781    -1.4339537    -0.8277402
N           1.3976995    -1.6183205    -0.5750191
H           1.1280625    -2.5187473    -0.9595387
C           0.3750201    -0.5847872    -0.7344815
H          -0.5872030    -1.0086532    -0.4324651
H           0.2876077    -0.2326015    -1.7729980
H           0.5822356     0.2612252    -0.0808341
C           3.1261514     0.6229197     0.7647232
O           2.0314042     0.5059350     1.5749880
H           2.1293591     1.1378575     2.3031257
C           3.3931992    -0.2137316    -0.3243248
N           4.6160649     0.2159282    -0.8509490
C           5.3172577    -0.3476513    -1.9988975
H           6.1710381     0.2987002    -2.2175868
H           4.6606065    -0.3831722    -2.8715170
H           5.6531604    -1.3629226    -1.7870466
C           5.0665794     1.2765870    -0.1336708
H           5.9918083     1.7677825    -0.4012007
C           4.1732483     1.5616006     0.8852490
H           4.2657837     2.3484445     1.6225112
O           3.3933266    -2.3172097    -1.4009676
21
277_C7H10N2O2_10-0-1-3 (60,) energy =    -532.6981747
C           2.7265362    -1.3762382    -0.8823915
N           1.4081045    -1.6024666    -0.4825358
H           1.1561772    -2.5181932    -0.8480215
C           0.3485200    -0.6206390    -0.7401710
H          -0.5908800    -1.0176089    -0.3443671
H           0.2151303    -0.4117126    -1.8119794
H           0.5608189     0.3096470    -0.2136640
C           3.1370133     0.6260132     0.7596971
O           2.0263844     0.5200939     1.5463370
H           2.1189369     1.1473481     2.2793951
C           3.4088460    -0.2012228    -0.3371418
N           4.6380473     0.2281797    -0.8517833
C           5.3481885    -0.3262291    -1.9989496
H           6.2156882     0.3104451    -2.1909919
H           4.7052172    -0.3377236    -2.8816715
H           5.6670319    -1.3501544    -1.8014802
C           5.0941382     1.2689736    -0.1107507
H           6.0316587     1.7483894    -0.3561323
C           4.1943560     1.5487693     0.9047792
H           4.2897527     2.3232412     1.6546521
O           3.3171418    -2.2125067    -1.5724976
21
277_C7H10N2O2_10-0-1-3 (75,) energy =    -532.6948901
C           2.6802001    -1.3020063    -0.9327274
N           1.4051473    -1.5711262    -0.3949508
H           1.1839293    -2.5135500    -0.7151221
C           0.2901740    -0.6799513    -0.7537269
H          -0.6214649    -1.0601068    -0.2835473
H           0.1266040    -0.6176159    -1.8399028
H           0.4727125     0.3211066    -0.3591584
C           3.1408767     0.6448086     0.7487893
O           2.0093874     0.5716361     1.5050852
H           2.1016485     1.1963575     2.2405686
C           3.4092901    -0.1798681    -0.3529417
N           4.6538497     0.2286166    -0.8505688
C           5.3665436    -0.3289920    -1.9946238
H           6.2739517     0.2631328    -2.1392219
H           4.7514544    -0.2786480    -2.8954455
H           5.6239336    -1.3745251    -1.8215912
C           5.1268671     1.2446363    -0.0874725
H           6.0830280     1.6984689    -0.3087699
C           4.2200554     1.5365231     0.9192510
H           4.3255610     2.3002503     1.6786975
O           3.1968089    -2.0820431    -1.7364728
21
277_C7H10N2O2_10-0-1-3 (90,) energy =    -532.6902635
C           2.6351316    -1.2054847    -0.9607288
N           1.4050630    -1.5207380    -0.3119389
H           1.2442176    -2.4937131    -0.5782692
C           0.2321719    -0.7567735    -0.7779451
H          -0.6587282    -1.1505653    -0.2800591
H           0.0857853    -0.8155287    -1.8669300
H           0.3388760     0.2916864    -0.4875494
C           3.1665935     0.6687285     0.7681828
O           2.0265284     0.6254921     1.5096463
H           2.1228456     1.2555963     2.2402790
C           3.4179749    -0.1480270    -0.3456742
N           4.6708544     0.2414618    -0.8406789
C           5.3759302    -0.3266713    -1.9840384
H           6.3095510     0.2287811    -2.1057108
H           4.7757097    -0.2400076    -2.8913340
H           5.5913142    -1.3844176    -1.8237060
C           5.1701446     1.2279036    -0.0571260
H           6.1417914     1.6552209    -0.2637905
C           4.2691269     1.5276679     0.9534285
H           4.3937669     2.2775799     1.7236262
O           3.0619674    -1.9089416    -1.8776570
21
277_C7H10N2O2_10-0-1-3 (105,) energy =    -532.6945157
C           2.5861737    -1.1542413    -1.0184259
N           1.3455453    -1.5099176    -0.4453778
H           1.3227936    -1.2452454     0.5365066
C           0.1691004    -0.9228369    -1.1045509
H           0.1184521     0.1702659    -0.9885575
H          -0.7370956    -1.3647235    -0.6797655
H           0.2020136    -1.1647989    -2.1693350
C           3.1336253     0.5555788     0.8766894
O           1.9748303     0.4383999     1.5980672
H           2.0250995     1.0327228     2.3617263
C           3.3959503    -0.1769472    -0.2885041
N           4.6712263     0.2142927    -0.7103296
C           5.3888365    -0.2745233    -1.8832042
H           6.3677960     0.2114191    -1.8983966
H           4.8405893    -0.0431542    -2.7971985
H           5.5169700    -1.3574180    -1.8331599
C           5.1571269     1.1480399     0.1443029
H           6.1320339     1.5868691    -0.0172777
C           4.2324249     1.3925928     1.1493663
H           4.3435171     2.0882332     1.9706699
O           2.8997641    -1.5579554    -2.1360539
21
277_C7H10N2O2_10-0-1-3 (120,) energy =    -532.7003524
C           2.5746276    -1.0397164    -1.0341056
N           1.3476687    -1.3754615    -0.4515669
H           1.2746428    -1.0202489     0.4973348
C           0.1436567    -1.0399087    -1.2178976
H          -0.0525474     0.0425469    -1.2359910
H          -0.7206532    -1.5479486    -0.7798952
H           0.2705263    -1.3929633    -2.2428901
C           3.1984566     0.6029550     0.9001205
O           2.0352618     0.5199439     1.6212999
H           2.1141932     1.0857349     2.4037135
C           3.4255557    -0.1122809    -0.2814362
N           4.7145979     0.2317173    -0.6988830
C           5.4073458    -0.2594105    -1.8857768
H           6.4094526     0.1771403    -1.8878120
H           4.8718502     0.0247369    -2.7924408
H           5.4805109    -1.3482251    -1.8663295
C           5.2438262     1.1241988     0.1751919
H           6.2364994     1.5233428     0.0195795
C           4.3332596     1.3855682     1.1883349
H           4.4759770     2.0567604     2.0249633
O           2.8664990    -1.4203504    -2.1682732
21
277_C7H10N2O2_10-0-1-3 (135,) energy =    -532.7056806
C           2.5320271    -0.9260753    -1.0399496
N           1.3153600    -1.2332729    -0.4468182
H           1.1933620    -0.8148269     0.4694568
C           0.1092992    -1.1562927    -1.2684280
H          -0.2099855    -0.1178479    -1.4413126
H          -0.7044874    -1.6988807    -0.7781800
H           0.3134942    -1.6250167    -2.2320510
C           3.2397278     0.6364788     0.9331198
O           2.0749598     0.5838141     1.6563129
H           2.1768151     1.1290230     2.4503411
C           3.4274371    -0.0549882    -0.2675093
N           4.7261921     0.2434577    -0.6857056
C           5.3897335    -0.2441239    -1.8906934
H           6.4094861     0.1495427    -1.8881344
H           4.8613466     0.0876592    -2.7852853
H           5.4160517    -1.3350889    -1.9017788
C           5.3012066     1.0867786     0.2094620
H           6.3101730     1.4439578     0.0572032
C           4.4099222     1.3600298     1.2360555
H           4.5872826     1.9999609     2.0904158
O           2.8058438    -1.2980326    -2.1833888
21
277_C7H10N2O2_10-0-1-3 (150,) energy =    -532.7096941
C           2.4670516    -0.8106142    -1.0556361
N           1.2476027    -1.0665392    -0.4651012
H           1.0879637    -0.6084690     0.4246432
C           0.0672691    -1.2449254    -1.2984112
H          -0.3957346    -0.2852025    -1.5710458
H          -0.6728159    -1.8555493    -0.7718194
H           0.3673503    -1.7593397    -2.2119847
C           3.2415454     0.6679414     0.9566034
O           2.0722364     0.6517986     1.6760260
H           2.1888223     1.1897108     2.4728521
C           3.4012981    -0.0009550    -0.2593843
N           4.7116823     0.2480904    -0.6696296
C           5.3554752    -0.2388585    -1.8855686
H           6.3914087     0.1098439    -1.8726054
H           4.8442206     0.1378497    -2.7724139
H           5.3332739    -1.3291591    -1.9236815
C           5.3243986     1.0395291     0.2487791
H           6.3502059     1.3501809     0.1079522
C           4.4442536     1.3269099     1.2806919
H           4.6496434     1.9337480     2.1527521
O           2.7389130    -1.1993379    -2.1956455
21
277_C7H10N2O2_10-0-1-3 (165,) energy =    -532.7119193
C           2.2592989    -0.6660511    -0.9639188
N           1.0361055    -0.8199692    -0.3613057
H           0.8847951    -0.3328815     0.5128670
C          -0.1253307    -1.2391885    -1.1233740
H          -0.7249424    -0.3838897    -1.4665664
H          -0.7621544    -1.8920588    -0.5169687
H           0.2263589    -1.7902074    -1.9962587
C           3.1597116     0.7417870     1.0459865
O           2.0030248     0.7869674     1.7856106
H           2.1598960     1.3214741     2.5776953
C           3.2561375     0.0806178    -0.1797107
N           4.5705751     0.2545468    -0.6124790
C           5.1600385    -0.2507774    -1.8483240
H           6.2135905     0.0407041    -1.8541313
H           4.6523301     0.1667607    -2.7190610
H           5.0752709    -1.3371282    -1.9003973
C           5.2486018     0.9938216     0.3044551
H           6.2897285     1.2398198     0.1493234
C           4.4068398     1.3205564     1.3562306
H           4.6658608     1.8989140     2.2333673
O           2.5049137    -1.1153654    -2.0887459
21
277_C7H10N2O2_10-0-1-3 (180,) energy =    -532.7125186
C           2.2935304    -0.5954872    -1.0437067
N           1.0359534    -0.6402000    -0.5053544
H           0.8797268    -0.1981685     0.3906476
C          -0.0651781    -1.2999536    -1.1760633
H          -0.8891342    -0.6012915    -1.3692883
H          -0.4516721    -2.1385984    -0.5825114
H           0.3082974    -1.6813726    -2.1272185
C           3.1952937     0.7525443     1.0061263
O           2.0243666     0.8245242     1.7215103
H           2.1904364     1.3087875     2.5434234
C           3.2952718     0.1146951    -0.2311436
N           4.6228732     0.2540530    -0.6343186
C           5.2234534    -0.2536392    -1.8638270
H           6.2788816     0.0310049    -1.8567501
H           4.7296240     0.1702044    -2.7394315
H           5.1307554    -1.3391365    -1.9200765
C           5.3074158     0.9465580     0.3141681
H           6.3592811     1.1599622     0.1856375
C           4.4554394     1.2785062     1.3558843
H           4.7150559     1.8299348     2.2500347
O           2.5708885    -1.1115620    -2.1325807
