21
277_C7H10N2O2_1-0-10-11 (-165,) energy =    -532.7118590
C           2.4058614    -0.6666896    -1.0625859
N           1.1200470    -0.5770511    -0.5999484
H           0.9649414    -0.1160861     0.2871081
C           0.0343244    -1.3193270    -1.2085910
H          -0.8243772    -0.6645830    -1.3976310
H          -0.2959981    -2.1547564    -0.5760987
H           0.3967524    -1.7184686    -2.1566844
C           3.3201027     0.6684344     0.9884432
O           2.1862647     0.6269271     1.7640248
H           2.3444965     1.1358404     2.5725701
C           3.4054922     0.0657992    -0.2667072
N           4.6860660     0.3395890    -0.7443338
C           5.2531524    -0.0895517    -2.0185067
H           6.2556548     0.3393159    -2.0952016
H           4.6380512     0.2572459    -2.8501818
H           5.3066669    -1.1780361    -2.0725897
C           5.3639074     1.0643033     0.1850128
H           6.3840534     1.3723726     0.0036631
C           4.5499716     1.2913815     1.2838650
H           4.8139335     1.8392113     2.1789672
O           2.7027933    -1.2818502    -2.0927533
21
277_C7H10N2O2_1-0-10-11 (-150,) energy =    -532.7097072
C           2.3908129    -0.7667852    -1.0373050
N           1.0888337    -0.4813362    -0.7159620
H           0.9258431     0.0423934     0.1349492
C          -0.0114188    -1.2424106    -1.2780732
H          -0.8651282    -0.5834642    -1.4679844
H          -0.3368454    -2.0575013    -0.6160582
H           0.3277270    -1.6749038    -2.2200834
C           3.3077083     0.5975804     0.9890590
O           2.1853888     0.5277888     1.7798889
H           2.3417097     1.0465121     2.5826945
C           3.3970924    -0.0271186    -0.2532051
N           4.6458099     0.3077098    -0.7711164
C           5.1913000    -0.1180439    -2.0547987
H           6.1723302     0.3491108    -2.1717017
H           4.5387398     0.1936571    -2.8730994
H           5.2846966    -1.2042983    -2.0946204
C           5.3118280     1.0783200     0.1303831
H           6.3125304     1.4290078    -0.0796812
C           4.5149835     1.2809689     1.2464357
H           4.7749810     1.8525779     2.1277498
O           2.6982934    -1.5197349    -1.9664269
21
277_C7H10N2O2_1-0-10-11 (-135,) energy =    -532.7059540
C           2.4224265    -0.8707321    -0.9579348
N           1.1303996    -0.4399045    -0.7904609
H           0.9558022     0.1702524    -0.0014702
C           0.0103350    -1.1952157    -1.3246833
H          -0.7830574    -0.5111011    -1.6425349
H          -0.4051218    -1.9019007    -0.5925089
H           0.3691705    -1.7584422    -2.1869074
C           3.3360919     0.5301914     1.0412943
O           2.2357201     0.4106479     1.8564619
H           2.4042819     0.9055062     2.6718498
C           3.4291176    -0.1033149    -0.1937949
N           4.6266289     0.3171359    -0.7638868
C           5.1475279    -0.1006167    -2.0590430
H           6.1001435     0.4094704    -2.2203427
H           4.4537049     0.1702610    -2.8591959
H           5.2901724    -1.1821590    -2.0867168
C           5.2748484     1.1359402     0.1095341
H           6.2445077     1.5452060    -0.1370301
C           4.5065741     1.2927181     1.2521964
H           4.7593344     1.8872179     2.1204442
O           2.7344415    -1.7442756    -1.7707121
21
277_C7H10N2O2_1-0-10-11 (-120,) energy =    -532.7011458
C           2.4562470    -0.9501515    -0.7944621
N           1.2039296    -0.3916134    -0.8438597
H           1.0218799     0.3596105    -0.1906744
C           0.0641423    -1.1347088    -1.3559459
H          -0.6254556    -0.4545654    -1.8659173
H          -0.4808373    -1.6620383    -0.5609207
H           0.4407422    -1.8701167    -2.0678203
C           3.3733044     0.5160459     1.1567105
O           2.3087030     0.3518676     2.0094235
H           2.5116038     0.8071410     2.8398577
C           3.4605205    -0.1289729    -0.0703427
N           4.6146098     0.3411885    -0.6861798
C           5.0689730    -0.0325152    -2.0181455
H           6.1230902     0.2369873    -2.1158890
H           4.4945466     0.4917757    -2.7909630
H           4.9433886    -1.1067246    -2.1577576
C           5.2520308     1.2044690     0.1538879
H           6.1909755     1.6575219    -0.1319779
C           4.5143890     1.3377514     1.3183910
H           4.7703332     1.9481865     2.1746560
O           2.7531602    -1.9724811    -1.4138392
21
277_C7H10N2O2_1-0-10-11 (-105,) energy =    -532.6963848
C           2.4504452    -1.0194075    -0.6715741
N           1.2668672    -0.3900247    -0.9582174
H           1.1030117     0.4932673    -0.4938078
C           0.1212702    -1.1150388    -1.4830549
H          -0.4317429    -0.4831478    -2.1852910
H          -0.5608639    -1.4438722    -0.6875587
H           0.4985099    -1.9952431    -2.0050865
C           3.4245833     0.4819583     1.2366021
O           2.4265898     0.2699736     2.1551375
H           2.6901829     0.6849588     2.9894154
C           3.4550299    -0.1396873    -0.0015248
N           4.5552849     0.3666585    -0.6808036
C           4.9360112     0.0000115    -2.0354345
H           5.9758596     0.2905515    -2.2007962
H           4.3038439     0.5054663    -2.7755112
H           4.8342080    -1.0796241    -2.1636015
C           5.2217163     1.2399053     0.1300077
H           6.1288190     1.7215818    -0.2070788
C           4.5509878     1.3385305     1.3359487
H           4.8393319     1.9476516     2.1829090
O           2.7077488    -2.1590105    -1.0536214
21
277_C7H10N2O2_1-0-10-11 (-90,) energy =    -532.6937548
C           2.2884647    -0.9613008    -0.5227064
N           1.2637784    -0.3272021    -1.1700267
H           1.2654277     0.6830065    -1.1583106
C           0.1173566    -1.0323734    -1.7166266
H          -0.1110397    -0.6713488    -2.7249840
H          -0.7732999    -0.9087307    -1.0871974
H           0.3720285    -2.0922989    -1.7576517
C           3.4860384     0.4479524     1.3060027
O           2.6282303     0.2859935     2.3623009
H           2.1369041    -0.5404289     2.2308574
C           3.3355259    -0.0321926     0.0147354
N           4.4540912     0.3662274    -0.7063021
C           4.7687935    -0.0590325    -2.0575040
H           5.6525783     0.4835683    -2.3999350
H           3.9376207     0.1624876    -2.7353624
H           4.9729919    -1.1351404    -2.0950634
C           5.2652205     1.1087402     0.1113235
H           6.1915984     1.5198951    -0.2647873
C           4.6937223     1.1889050     1.3654327
H           5.0843622     1.7096770     2.2277682
O           2.3291372    -2.1795275    -0.3688805
21
277_C7H10N2O2_1-0-10-11 (-75,) energy =    -532.6975401
C           2.2248438    -0.9442295    -0.3320499
N           1.3514387    -0.5506354    -1.3075348
H           1.5018056     0.3538473    -1.7310100
C           0.2250905    -1.3573254    -1.7420717
H           0.3142975    -1.6393787    -2.7983496
H          -0.7183603    -0.8176413    -1.5997709
H           0.2147225    -2.2584023    -1.1277950
C           3.5700936     0.3484409     1.3615305
O           2.7992148     0.0412852     2.4377923
H           2.2850662    -0.7504464     2.1875317
C           3.2851215     0.0312690     0.0334811
N           4.4297535     0.3484873    -0.7031717
C           4.5736188     0.2222142    -2.1403982
H           5.6328897     0.3004956    -2.3966232
H           4.0256059     1.0044003    -2.6831264
H           4.2098573    -0.7549295    -2.4718520
C           5.3209877     0.9788959     0.1206454
H           6.2483307     1.3679460    -0.2770243
C           4.8222189     1.0046388     1.4095667
H           5.3134399     1.3928397     2.2900708
O           2.0348879    -1.9583066     0.3493559
21
277_C7H10N2O2_1-0-10-11 (-60,) energy =    -532.7032514
C           2.1696147    -0.8840147    -0.2631174
N           1.4205688    -0.5928208    -1.3710199
H           1.6682851     0.2259276    -1.9071128
C           0.2744264    -1.3825261    -1.7842915
H           0.4302005    -1.8363768    -2.7708424
H          -0.6310568    -0.7655557    -1.8190685
H           0.1376581    -2.1701720    -1.0427311
C           3.6130678     0.3071247     1.4052866
O           2.8868295    -0.0323621     2.4944354
H           2.3009595    -0.7624225     2.1995995
C           3.2699382     0.0361243     0.0760617
N           4.3886701     0.3761315    -0.6967771
C           4.4922692     0.2873997    -2.1397888
H           5.5445422     0.3682597    -2.4226619
H           3.9362475     1.0881580    -2.6475091
H           4.1146957    -0.6785696    -2.4875511
C           5.3146899     0.9690928     0.1136837
H           6.2326919     1.3589626    -0.3046809
C           4.8693844     0.9552327     1.4225197
H           5.4004404     1.3098818     2.2938730
O           1.8240614    -1.7655547     0.5398006
21
277_C7H10N2O2_1-0-10-11 (-45,) energy =    -532.7083689
C           2.1663767    -0.8297457    -0.2037755
N           1.5632244    -0.6959272    -1.4272322
H           1.8177070     0.0986343    -1.9950199
C           0.3508760    -1.4227754    -1.7645274
H           0.3167248    -1.6073266    -2.8425111
H          -0.5532620    -0.8751320    -1.4666734
H           0.3609125    -2.3749854    -1.2330813
C           3.6312019     0.3417719     1.4531100
O           2.9034451     0.0210773     2.5417283
H           2.2661255    -0.6622852     2.2302468
C           3.2910160     0.0472152     0.1254284
N           4.4000223     0.4044039    -0.6568590
C           4.5245898     0.2792925    -2.0955736
H           5.5761400     0.3973111    -2.3674348
H           3.9446582     1.0443350    -2.6312527
H           4.1902234    -0.7094729    -2.4218324
C           5.3226787     1.0059246     0.1497475
H           6.2383563     1.3976924    -0.2720970
C           4.8828944     0.9980696     1.4606374
H           5.4127053     1.3678968     2.3263033
O           1.6798173    -1.5720388     0.6686825
21
277_C7H10N2O2_1-0-10-11 (-30,) energy =    -532.7121903
C           2.1777657    -0.7296026    -0.1908991
N           1.6690078    -0.7314396    -1.4654583
H           1.9681075     0.0007109    -2.0919476
C           0.4097251    -1.3975190    -1.7602759
H           0.3358292    -1.5641143    -2.8384675
H          -0.4584722    -0.8141473    -1.4253543
H           0.3887191    -2.3582195    -1.2440228
C           3.7048796     0.3874004     1.4425816
O           2.9909888     0.0799495     2.5398247
H           2.2943345    -0.5443193     2.2204636
C           3.3460153     0.0816086     0.1209322
N           4.4244760     0.4720786    -0.6890665
C           4.5453481     0.3252815    -2.1258107
H           5.5853051     0.5039510    -2.4083492
H           3.9181580     1.0455549    -2.6705151
H           4.2710864    -0.6880161    -2.4329022
C           5.3611537     1.0704837     0.1036826
H           6.2671793     1.4674911    -0.3339126
C           4.9532450     1.0499891     1.4244333
H           5.4979211     1.4252210     2.2783694
O           1.5897552    -1.3420886     0.7229773
21
277_C7H10N2O2_1-0-10-11 (-15,) energy =    -532.7143183
C           2.1592956    -0.6894568    -0.1754021
N           1.7137572    -0.7932700    -1.4704041
H           2.0680133    -0.1333195    -2.1458853
C           0.4221839    -1.4014749    -1.7542397
H           0.3742332    -1.6551487    -2.8167888
H          -0.4174032    -0.7392429    -1.5033665
H           0.3222966    -2.3111811    -1.1608746
C           3.7465806     0.3445888     1.4521011
O           3.0456777     0.0287829     2.5526825
H           2.2969720    -0.5293129     2.2213119
C           3.3734471     0.0455718     0.1320313
N           4.4136714     0.5011163    -0.6948227
C           4.5293555     0.3642236    -2.1328366
H           5.5506163     0.6176138    -2.4257439
H           3.8494499     1.0421068    -2.6685540
H           4.3262420    -0.6654375    -2.4426008
C           5.3606481     1.0885227     0.0948449
H           6.2516284     1.5092317    -0.3514403
C           4.9863408     1.0232995     1.4233729
H           5.5407378     1.3926876     2.2735231
O           1.5027196    -1.2028964     0.7551664
21
277_C7H10N2O2_1-0-10-11 (0,) energy =    -532.7147334
C           2.3063567    -0.5478911    -0.2263856
N           1.8762814    -0.7287057    -1.5179814
H           2.5621129    -0.7125598    -2.2565885
C           0.6410712    -1.4521247    -1.7833328
H           0.7541329    -2.5378913    -1.6611936
H           0.3179430    -1.2383128    -2.8058681
H          -0.1232863    -1.1116352    -1.0839315
C           4.0672809     0.2073332     1.3723040
O           3.4114413    -0.1551044     2.4844687
H           2.5436468    -0.5091039     2.1577180
C           3.5905416     0.0665312     0.0580736
N           4.5930801     0.5685238    -0.7900465
C           4.5535280     0.7104925    -2.2313084
H           5.4228543     1.2907822    -2.5479668
H           3.6511909     1.2428627    -2.5507937
H           4.6006011    -0.2624930    -2.7402902
C           5.6311855     1.0008020    -0.0142155
H           6.5037876     1.4413742    -0.4773592
C           5.3534919     0.7921954     1.3223942
H           5.9869225     1.0328411     2.1634326
O           1.5681960    -0.8825420     0.7258958
21
277_C7H10N2O2_1-0-10-11 (15,) energy =    -532.7143182
C           2.2743375    -0.4925231    -0.2303883
N           1.9078139    -0.7915476    -1.5200802
H           2.6415239    -0.9117728    -2.2017470
C           0.6424306    -1.4600060    -1.7861362
H           0.6737803    -2.5303369    -1.5413945
H           0.3920785    -1.3409359    -2.8439196
H          -0.1349800    -0.9978719    -1.1766126
C           4.0769922     0.1583202     1.3710573
O           3.4178305    -0.2070642     2.4821644
H           2.5166459    -0.4685150     2.1642534
C           3.5957398     0.0365093     0.0577244
N           4.5747562     0.5895925    -0.7841956
C           4.5156175     0.7607761    -2.2220130
H           5.3288591     1.4227363    -2.5276773
H           3.5669819     1.2175109    -2.5200648
H           4.6402156    -0.1915819    -2.7570669
C           5.6246225     0.9939024    -0.0098344
H           6.4904257     1.4511571    -0.4694981
C           5.3651592     0.7384908     1.3231449
H           6.0054066     0.9611333     2.1640196
O           1.4807504    -0.7035104     0.7108837
21
277_C7H10N2O2_1-0-10-11 (30,) energy =    -532.7121912
C           2.2551313    -0.4535676    -0.2479396
N           1.9323959    -0.8673104    -1.5161780
H           2.6898948    -1.0753828    -2.1494268
C           0.6392057    -1.4737886    -1.7920291
H           0.5894305    -2.5190686    -1.4583863
H           0.4441748    -1.4307474    -2.8671513
H          -0.1327005    -0.9144982    -1.2618371
C           4.0882258     0.0995682     1.3592512
O           3.4272508    -0.2806735     2.4670031
H           2.5051688    -0.4613958     2.1607528
C           3.6099553    -0.0071025     0.0445448
N           4.5611780     0.6132271    -0.7809241
C           4.4958213     0.7944678    -2.2173745
H           5.2595883     1.5174265    -2.5127241
H           3.5167242     1.1833363    -2.5112751
H           4.6865180    -0.1410380    -2.7626574
C           5.6140635     1.0028659    -0.0038996
H           6.4709178     1.4847267    -0.4550894
C           5.3694165     0.6953744     1.3215434
H           6.0083598     0.9075887     2.1661771
O           1.4230199    -0.5470586     0.6764363
21
277_C7H10N2O2_1-0-10-11 (45,) energy =    -532.7083635
C           2.2438945    -0.4093551    -0.2744914
N           1.9495044    -0.9531534    -1.4970963
H           2.7190604    -1.2301805    -2.0882515
C           0.6303134    -1.4905716    -1.7872462
H           0.4970813    -2.5010931    -1.3783875
H           0.4803223    -1.5199937    -2.8700751
H          -0.1219024    -0.8426624    -1.3349478
C           4.1062340     0.0424861     1.3349167
O           3.4461973    -0.3617801     2.4384142
H           2.5084850    -0.4598462     2.1527428
C           3.6291895    -0.0395755     0.0190784
N           4.5540543     0.6468267    -0.7828367
C           4.4888721     0.8346703    -2.2186122
H           5.2121214     1.6020579    -2.5042147
H           3.4907114     1.1700604    -2.5139102
H           4.7308521    -0.0854358    -2.7693511
C           5.6102742     1.0183800    -0.0019707
H           6.4582331     1.5250937    -0.4425816
C           5.3797917     0.6550089     1.3121744
H           6.0176160     0.8503267     2.1618265
O           1.3838588    -0.3675951     0.6244828
21
277_C7H10N2O2_1-0-10-11 (60,) energy =    -532.7032540
C           2.2727246    -0.2540198    -0.5006231
N           2.0082538    -1.0032221    -1.6150865
H           2.7909689    -1.3160582    -2.1706027
C           0.6681217    -1.4097023    -1.9982621
H           0.5762941    -2.5023583    -2.0016884
H           0.4014780    -1.0301206    -2.9921340
H          -0.0203861    -1.0006241    -1.2582900
C           4.1433866     0.1101835     1.1284834
O           3.4532162    -0.2660792     2.2290056
H           2.5101332    -0.2667377     1.9575502
C           3.6853388     0.0311836    -0.1913717
N           4.6273992     0.7097730    -0.9765717
C           4.5872387     0.8687146    -2.4167653
H           5.2943745     1.6504221    -2.7044366
H           3.5864778     1.1741009    -2.7356826
H           4.8604625    -0.0552426    -2.9457132
C           5.6869058     1.0541792    -0.1861953
H           6.5521901     1.5384698    -0.6180608
C           5.4316576     0.6923616     1.1235861
H           6.0606291     0.8743052     1.9828557
O           1.3871482     0.0104445     0.3281751
21
277_C7H10N2O2_1-0-10-11 (75,) energy =    -532.6975406
C           2.2582505    -0.1723386    -0.5679598
N           2.0005526    -1.0856621    -1.5521611
H           2.7921876    -1.5279020    -1.9968508
C           0.6585106    -1.4644494    -1.9566481
H           0.4868295    -2.5344041    -1.7899148
H           0.4793864    -1.2391560    -3.0149174
H          -0.0393153    -0.8943086    -1.3423772
C           4.1477246     0.0524177     1.0839289
O           3.4546671    -0.3782690     2.1707827
H           2.5089960    -0.2852881     1.9453501
C           3.6898752     0.0470913    -0.2335883
N           4.6312718     0.7589878    -0.9822091
C           4.5869414     0.9723448    -2.4156918
H           5.2981691     1.7596182    -2.6768516
H           3.5868294     1.2966348    -2.7182428
H           4.8484370     0.0661923    -2.9788743
C           5.6987089     1.0530144    -0.1794254
H           6.5697356     1.5445426    -0.5907409
C           5.4405691     0.6256496     1.1095652
H           6.0712135     0.7556839     1.9771286
O           1.3622941     0.2987041     0.1419998
21
277_C7H10N2O2_1-0-10-11 (90,) energy =    -532.6937611
C           2.1577304    -0.1319956    -0.7527916
N           1.9984078    -1.3391940    -1.3766435
H           2.7874817    -1.9700564    -1.3686947
C           0.7207938    -1.8015178    -1.8907029
H           0.2848654    -2.5801954    -1.2517980
H           0.8341760    -2.2003351    -2.9044463
H           0.0454586    -0.9450829    -1.9097008
C           4.0399240    -0.0514584     1.0403457
O           3.3967331    -0.6000461     2.1187196
H           2.4416643    -0.4785445     1.9973633
C           3.5473797     0.1107336    -0.2449033
N           4.5459131     0.7201014    -0.9946116
C           4.3860579     1.2136353    -2.3496908
H           5.3625969     1.5221189    -2.7295052
H           3.7030224     2.0702813    -2.3817855
H           3.9904465     0.4270521    -3.0006562
C           5.6476542     0.9003207    -0.1998970
H           6.5418522     1.3568740    -0.6007029
C           5.3752970     0.4252041     1.0671826
H           6.0414322     0.4172767     1.9178475
O           1.2362052     0.6650459    -0.5955622
21
277_C7H10N2O2_1-0-10-11 (105,) energy =    -532.6963857
C           2.2324887    -0.0735671    -1.2395519
N           1.6083052    -1.1566089    -0.6776307
H           1.7780857    -1.3145472     0.3065986
C           0.4369513    -1.7681731    -1.2832694
H          -0.4976766    -1.3942474    -0.8443728
H           0.4748511    -2.8556395    -1.1621495
H           0.4488882    -1.5201370    -2.3453119
C           3.2803629     1.1036193     0.8490626
O           2.1058869     1.3924014     1.4983720
H           2.3120317     1.9497218     2.2629698
C           3.3257631     0.4975522    -0.3961598
N           4.6656331     0.2954654    -0.6996408
C           5.1559550    -0.3408765    -1.9116128
H           6.2157146    -0.1045623    -2.0302049
H           4.5995952     0.0346669    -2.7729837
H           5.0383610    -1.4301406    -1.8623271
C           5.4359122     0.8085504     0.3043166
H           6.5146085     0.7789191     0.2407944
C           4.6113249     1.3250955     1.2876848
H           4.9286921     1.8012829     2.2063888
O           2.0062721     0.3053734    -2.3867389
21
277_C7H10N2O2_1-0-10-11 (120,) energy =    -532.7011448
C           2.2663920    -0.1543749    -1.1865228
N           1.5027474    -1.0793025    -0.5201289
H           1.5528984    -1.0577659     0.4904387
C           0.3118617    -1.6522022    -1.1262730
H          -0.5932054    -1.0723441    -0.8983575
H           0.1728355    -2.6784629    -0.7723009
H           0.4583354    -1.6578278    -2.2069984
C           3.2690946     1.0006298     0.9249858
O           2.0874712     1.1693256     1.6052912
H           2.2750335     1.6485370     2.4258022
C           3.3295362     0.4688641    -0.3567575
N           4.6770117     0.3675366    -0.6826092
C           5.2029391    -0.1889807    -1.9211074
H           6.2428432     0.1267578    -2.0317192
H           4.6112024     0.1717351    -2.7631031
H           5.1632399    -1.2845549    -1.9077273
C           5.4251400     0.8726628     0.3383828
H           6.5028476     0.9116850     0.2634664
C           4.5857031     1.2848893     1.3598515
H           4.8870236     1.7351135     2.2967775
O           2.1684428     0.0382141    -2.3990406
21
277_C7H10N2O2_1-0-10-11 (135,) energy =    -532.7059526
C           2.3178294    -0.3623839    -1.2440113
N           1.4211784    -1.1026734    -0.5143480
H           1.3768730    -0.9069034     0.4782431
C           0.2502438    -1.6934870    -1.1397302
H          -0.6344819    -1.0454947    -1.0665464
H           0.0213385    -2.6556519    -0.6701799
H           0.4802320    -1.8514704    -2.1940127
C           3.2628645     0.8773253     0.8453203
O           2.0841829     0.9623706     1.5474858
H           2.2641986     1.3936572     2.3958579
C           3.3386348     0.3362096    -0.4341388
N           4.6855910     0.3357202    -0.7830706
C           5.2381746    -0.1297495    -2.0484097
H           6.3245629    -0.0235755    -2.0013988
H           4.8396426     0.4512151    -2.8819920
H           4.9852900    -1.1797222    -2.2161243
C           5.4079346     0.9063615     0.2199112
H           6.4782263     1.0260727     0.1268760
C           4.5586562     1.2630263     1.2552530
H           4.8431476     1.7339031     2.1871894
O           2.3483390    -0.3769713    -2.4766818
21
277_C7H10N2O2_1-0-10-11 (150,) energy =    -532.7097088
C           2.3521228    -0.4557114    -1.1878670
N           1.3225880    -1.0015383    -0.4652360
H           1.2346404    -0.7181355     0.5026561
C           0.1672667    -1.5869091    -1.1195120
H          -0.6776883    -0.8862570    -1.1781012
H          -0.1579346    -2.4831361    -0.5804845
H           0.4621423    -1.8623820    -2.1327238
C           3.2883016     0.8110776     0.8921188
O           2.1206890     0.8639936     1.6157927
H           2.3074286     1.2766309     2.4718674
C           3.3633022     0.2539870    -0.3828643
N           4.6996560     0.3331467    -0.7671665
C           5.2631315    -0.1214660    -2.0330908
H           6.3436860     0.0371054    -1.9931739
H           4.8329338     0.4312914    -2.8698122
H           5.0547888    -1.1819496    -2.1882085
C           5.4119840     0.9466051     0.2157999
H           6.4727654     1.1191706     0.0996967
C           4.5695601     1.2657641     1.2694215
H           4.8501246     1.7580855     2.1913425
O           2.4702035    -0.6160016    -2.4065490
21
277_C7H10N2O2_1-0-10-11 (165,) energy =    -532.7118604
C           2.3974073    -0.4955126    -1.1775256
N           1.2468257    -0.8382220    -0.5186103
H           1.1191816    -0.4954892     0.4246211
C           0.1269809    -1.4526355    -1.2031315
H          -0.7140425    -0.7554199    -1.3197891
H          -0.2252153    -2.3351028    -0.6562087
H           0.4706739    -1.7574638    -2.1923151
C           3.3025237     0.7889235     0.9097286
O           2.1382361     0.8112879     1.6397497
H           2.3174022     1.2241024     2.4971906
C           3.3934792     0.2174776    -0.3595361
N           4.7192432     0.3708439    -0.7617097
C           5.3052607    -0.0697692    -2.0233156
H           6.3695446     0.1780938    -1.9977473
H           4.8250194     0.4263383    -2.8678379
H           5.1801128    -1.1462564    -2.1517574
C           5.4090731     1.0224188     0.2119424
H           6.4594225     1.2444340     0.0855952
C           4.5633159     1.3048394     1.2732502
H           4.8274478     1.8177281     2.1887638
O           2.6048462    -0.7967787    -2.3581589
21
277_C7H10N2O2_1-0-10-11 (180,) energy =    -532.7125116
C           2.3509746    -0.5761593    -1.0823163
N           1.1165994    -0.6786305    -0.4999290
H           0.9827716    -0.2764372     0.4181625
C           0.0167638    -1.3664182    -1.1443982
H          -0.8612419    -0.7139850    -1.2266247
H          -0.2721395    -2.2718513    -0.5943149
H           0.3457513    -1.6518855    -2.1443540
C           3.2846941     0.7458196     0.9705690
O           2.1385165     0.7607449     1.7281345
H           2.3210529     1.2205792     2.5605159
C           3.3586155     0.1446361    -0.2867280
N           4.6652672     0.3381982    -0.7334740
C           5.2365308    -0.1196892    -1.9961019
H           6.2836449     0.1935459    -2.0167083
H           4.7017058     0.3134002    -2.8426507
H           5.1709188    -1.2054469    -2.0788817
C           5.3620016     1.0271058     0.2087188
H           6.4016280     1.2760391     0.0485274
C           4.5393491     1.3034906     1.2895585
H           4.8144104     1.8384005     2.1891350
O           2.6035691    -1.0511565    -2.1956305
