21
279_C7H10N2O2_1-0-13-14 (-165,) energy =    -532.7107791
C           2.6501693    -0.5984312    -1.6421037
N           1.3096818    -0.6635575    -1.3857878
C           0.3606854    -1.1612322    -2.3614678
H          -0.4947447    -0.4818613    -2.4510784
H          -0.0117946    -2.1609023    -2.0993654
H           0.8750312    -1.2188149    -3.3217351
H           1.0118139    -0.5147200    -0.4298332
C           3.2750414     0.0995307     0.8302776
O           2.0707118    -0.1413979     1.4317381
C           1.9944532     0.1546328     2.8190250
H           0.9786400    -0.0950787     3.1308657
H           2.1844543     1.2191264     3.0085895
H           2.7110823    -0.4481616     3.3916049
C           3.4887732    -0.1509779    -0.5235768
N           4.7841668     0.2370528    -0.7902316
H           5.1738931     0.1337836    -1.7171881
C           5.3876210     0.6887510     0.3382095
H           6.4138082     1.0265087     0.3352888
C           4.4738339     0.6197218     1.3824244
H           4.6590484     0.9113998     2.4058725
O           3.1520311    -0.8300629    -2.7481414
21
279_C7H10N2O2_1-0-13-14 (-150,) energy =    -532.7076908
C           2.6705318    -0.7238703    -1.6318861
N           1.3240990    -0.5762056    -1.4387562
C           0.3546025    -1.1018272    -2.3814013
H          -0.4562662    -0.3814688    -2.5347417
H          -0.0795460    -2.0531605    -2.0437132
H           0.8711012    -1.2688399    -3.3275180
H           1.0201609    -0.3492127    -0.4997757
C           3.3011321     0.0452739     0.8131686
O           2.1122992    -0.2318115     1.4304418
C           2.0355953     0.0941248     2.8108418
H           1.0377172    -0.2008129     3.1407542
H           2.1715742     1.1714414     2.9738433
H           2.7888184    -0.4563321     3.3890798
C           3.5210605    -0.2477507    -0.5305976
N           4.7810404     0.2281536    -0.8285827
H           5.1834420     0.0994184    -1.7466271
C           5.3669561     0.7509212     0.2791117
H           6.3691696     1.1533810     0.2522260
C           4.4701587     0.6572216     1.3351412
H           4.6449439     0.9959407     2.3458433
O           3.1714208    -1.1094875    -2.6930642
21
279_C7H10N2O2_1-0-13-14 (-135,) energy =    -532.7028057
C           2.6756529    -0.8679471    -1.6087986
N           1.3561931    -0.5132093    -1.5063009
C           0.3546453    -1.0568727    -2.4069938
H          -0.4061203    -0.2992476    -2.6209251
H          -0.1400295    -1.9476820    -1.9950687
H           0.8582512    -1.3349688    -3.3336451
H           1.0521582    -0.1722633    -0.6022919
C           3.3290838    -0.0006029     0.7913423
O           2.1596977    -0.3009622     1.4348016
C           2.1003592     0.0459795     2.8105780
H           1.1223162    -0.2822026     3.1676795
H           2.1964528     1.1306229     2.9540185
H           2.8872278    -0.4637321     3.3814705
C           3.5484252    -0.3462521    -0.5388684
N           4.7675137     0.2042797    -0.8830237
H           5.1827176     0.0424978    -1.7896944
C           5.3411636     0.8031102     0.1940472
H           6.3186333     1.2591927     0.1331815
C           4.4687746     0.6996399     1.2676758
H           4.6380963     1.0900885     2.2605029
O           3.1510160    -1.4327184    -2.5968667
21
279_C7H10N2O2_1-0-13-14 (-120,) energy =    -532.6968457
C           2.6684340    -0.9974675    -1.5537729
N           1.4068045    -0.4623526    -1.6016881
C           0.3811194    -1.0200637    -2.4677371
H          -0.2649055    -0.2201435    -2.8433123
H          -0.2406962    -1.7656339    -1.9531631
H           0.8838028    -1.5033439    -3.3063565
H           1.1070837     0.0479164    -0.7803738
C           3.3309978    -0.0341731     0.8018688
O           2.1857430    -0.3727085     1.4688280
C           2.1513163    -0.0404874     2.8482732
H           1.1959636    -0.4078599     3.2282968
H           2.2099507     1.0458290     3.0016128
H           2.9717010    -0.5244896     3.3942915
C           3.5518020    -0.4055101    -0.5190486
N           4.7297376     0.2093983    -0.9010354
H           5.1609335     0.0373461    -1.7978149
C           5.2862836     0.8663915     0.1541666
H           6.2382635     1.3693711     0.0655570
C           4.4385242     0.7408520     1.2425484
H           4.5998418     1.1651454     2.2227737
O           3.1054954    -1.7665384    -2.4100627
21
279_C7H10N2O2_1-0-13-14 (-105,) energy =    -532.6912694
C           2.6111674    -1.0710936    -1.4621610
N           1.4466141    -0.3977824    -1.7253181
C           0.4044279    -0.9698025    -2.5616622
H          -0.0755668    -0.1831481    -3.1525289
H          -0.3627436    -1.4893021    -1.9717227
H           0.8770809    -1.6896265    -3.2310181
H           1.1914249     0.3330107    -1.0745717
C           3.3073534    -0.0332871     0.8510460
O           2.2061788    -0.4308450     1.5568838
C           2.2199474    -0.1314811     2.9428832
H           1.2993489    -0.5490745     3.3557235
H           2.2372055     0.9528442     3.1214334
H           3.0840545    -0.5895455     3.4426040
C           3.4990475    -0.3832744    -0.4773441
N           4.6425785     0.2750029    -0.8927808
H           5.0704114     0.1197391    -1.7935695
C           5.2075442     0.9478311     0.1524124
H           6.1374339     1.4853300     0.0367482
C           4.3978093     0.7861225     1.2615676
H           4.5698640     1.2129859     2.2388344
O           2.9653761    -2.0654599    -2.0899596
21
279_C7H10N2O2_1-0-13-14 (-90,) energy =    -532.6880655
C           2.4809881    -1.1034710    -1.3280451
N           1.4694682    -0.3758038    -1.8965180
C           0.4521928    -0.9869948    -2.7344755
H           0.2030808    -0.3263779    -3.5714214
H          -0.4643965    -1.2089857    -2.1721503
H           0.8597042    -1.9233247    -3.1179998
H           1.3025878     0.5471656    -1.5205978
C           3.2784991    -0.0238903     0.9314861
O           2.2438481    -0.4745160     1.7003087
C           2.3491188    -0.2166534     3.0895465
H           1.4700550    -0.6697905     3.5524499
H           2.3533811     0.8620619     3.3012354
H           3.2565583    -0.6671121     3.5143900
C           3.3670229    -0.2974302    -0.4228765
N           4.4965204     0.3546019    -0.8856499
H           4.8597335     0.2547813    -1.8211617
C           5.1299095     0.9911392     0.1457577
H           6.0501620     1.5346338    -0.0109690
C           4.3929764     0.7872082     1.2966580
H           4.6272870     1.1789215     2.2756911
O           2.6856669    -2.2828299    -1.5905867
21
279_C7H10N2O2_1-0-13-14 (-75,) energy =    -532.6882483
C           2.3302498    -1.0680454    -1.2189450
N           1.5143284    -0.3567047    -2.0633798
C           0.5357886    -1.0028408    -2.9203519
H           0.4881278    -0.4997289    -3.8918626
H          -0.4662216    -1.0031145    -2.4712046
H           0.8503280    -2.0380176    -3.0598059
H           1.4371726     0.6370664    -1.8984882
C           3.2495291    -0.0097256     0.9944071
O           2.2800228    -0.4923651     1.8212317
C           2.4825836    -0.2742849     3.2063267
H           1.6415621    -0.7485009     3.7161537
H           2.4950011     0.7978680     3.4488484
H           3.4205646    -0.7296618     3.5522901
C           3.2190044    -0.2049981    -0.3777613
N           4.3384324     0.4325050    -0.8903880
H           4.6177972     0.3893060    -1.8582174
C           5.0547048     1.0148102     0.1166726
H           5.9647542     1.5610671    -0.0842187
C           4.3972197     0.7739092     1.3086171
H           4.7077184     1.1213941     2.2830708
O           2.3398374    -2.2914772    -1.1733892
21
279_C7H10N2O2_1-0-13-14 (-60,) energy =    -532.6903582
C           2.1955993    -1.0274622    -1.1042958
N           1.5897616    -0.3499405    -2.1408664
C           0.6129858    -1.0061568    -2.9938845
H           0.5544578    -0.4861193    -3.9546404
H          -0.3865965    -1.0318430    -2.5390397
H           0.9345990    -2.0361479    -3.1565429
H           1.5648562     0.6583114    -2.0743207
C           3.2106145    -0.0214901     1.0864487
O           2.2827292    -0.5124619     1.9502424
C           2.5408761    -0.2986555     3.3270294
H           1.7203669    -0.7740788     3.8679098
H           2.5642551     0.7727266     3.5716948
H           3.4912710    -0.7564237     3.6336564
C           3.1089728    -0.1807285    -0.2901663
N           4.2139335     0.4568293    -0.8395519
H           4.4480961     0.4253651    -1.8198820
C           4.9805441     1.0088655     0.1442545
H           5.8897780     1.5452890    -0.0852845
C           4.3771223     0.7469917     1.3613182
H           4.7361042     1.0719139     2.3267740
O           1.9965016    -2.2160381    -0.8889275
21
279_C7H10N2O2_1-0-13-14 (-45,) energy =    -532.6929591
C           2.0976192    -1.0071137    -1.0553548
N           1.6704304    -0.3853276    -2.2179140
C           0.6760218    -1.0256630    -3.0641393
H           0.7174352    -0.5937712    -4.0684736
H          -0.3434455    -0.9182513    -2.6688468
H           0.9032423    -2.0914525    -3.1179175
H           1.7007085     0.6257177    -2.2221755
C           3.2009037    -0.0519169     1.1126674
O           2.3241549    -0.5697477     2.0091685
C           2.6174690    -0.3340211     3.3757776
H           1.8280730    -0.8283927     3.9449575
H           2.6162434     0.7399926     3.6091344
H           3.5896984    -0.7607751     3.6575306
C           3.0436812    -0.1933029    -0.2632593
N           4.1079609     0.4841912    -0.8487413
H           4.3173712     0.4392240    -1.8343817
C           4.9056685     1.0317164     0.1108284
H           5.7981927     1.5835544    -0.1465761
C           4.3614239     0.7375823     1.3486673
H           4.7537546     1.0578135     2.3025707
O           1.7250813    -2.1291081    -0.7364565
21
279_C7H10N2O2_1-0-13-14 (-30,) energy =    -532.6948805
C           2.0097740    -0.9633653    -1.0367651
N           1.7364604    -0.4206256    -2.2890846
C           0.7040173    -1.0307988    -3.1141062
H           0.7975923    -0.6631259    -4.1400988
H          -0.3099806    -0.8208756    -2.7468148
H           0.8445131    -2.1127461    -3.1039445
H           1.8322878     0.5845172    -2.3623248
C           3.2003955    -0.0774538     1.1085067
O           2.3649803    -0.6216277     2.0250705
C           2.6807701    -0.3728878     3.3849433
H           1.9151390    -0.8839757     3.9713538
H           2.6582832     0.7016447     3.6139261
H           3.6684087    -0.7753429     3.6480819
C           3.0064395    -0.2053704    -0.2657396
N           4.0280843     0.5195913    -0.8739220
H           4.2396177     0.4473489    -1.8579254
C           4.8477003     1.0601678     0.0713608
H           5.7221019     1.6323116    -0.2037534
C           4.3512763     0.7334197     1.3204758
H           4.7664706     1.0475540     2.2666480
O           1.4773920    -1.9938837    -0.6430270
21
279_C7H10N2O2_1-0-13-14 (-15,) energy =    -532.6953710
C           1.9401383    -0.9022342    -1.0101040
N           1.7961721    -0.4756121    -2.3320517
C           0.7230269    -1.0538386    -3.1302276
H           0.8695395    -0.7781385    -4.1785579
H          -0.2738954    -0.7253285    -2.8056441
H           0.7624445    -2.1399914    -3.0346790
H           1.9669224     0.5108621    -2.4876358
C           3.2085766    -0.0865118     1.1088754
O           2.4047782    -0.6555447     2.0353332
C           2.7355349    -0.4057682     3.3920635
H           1.9898920    -0.9365180     3.9865138
H           2.6924922     0.6668493     3.6261189
H           3.7354806    -0.7877363     3.6384562
C           2.9930955    -0.2066227    -0.2645504
N           3.9767570     0.5651772    -0.8821048
H           4.2024165     0.4731265    -1.8617713
C           4.8074904     1.1025324     0.0563417
H           5.6670422     1.6926962    -0.2277957
C           4.3471375     0.7452080     1.3097409
H           4.7755373     1.0537108     2.2518243
O           1.2711669    -1.8199292    -0.5494642
21
279_C7H10N2O2_1-0-13-14 (0,) energy =    -532.6940932
C           1.8849713    -0.8270952    -0.9879850
N           1.8507420    -0.5488181    -2.3586607
C           0.7386220    -1.0863192    -3.1336703
H           0.9517283    -0.9544410    -4.1984146
H          -0.2213883    -0.6082128    -2.8947276
H           0.6437111    -2.1506869    -2.9143839
H           2.1178262     0.3963846    -2.6093846
C           3.2076877    -0.0921307     1.1150112
O           2.4221544    -0.6902175     2.0368211
C           2.7588922    -0.4594552     3.3958973
H           2.0249546    -1.0116693     3.9852207
H           2.7014055     0.6079633     3.6490651
H           3.7659532    -0.8310184     3.6288411
C           2.9882496    -0.1952051    -0.2603041
N           3.9427685     0.6246751    -0.8670957
H           4.1937418     0.5332285    -1.8409473
C           4.7743645     1.1508444     0.0786396
H           5.6213685     1.7622977    -0.1985429
C           4.3351785     0.7531435     1.3259422
H           4.7661309     1.0472647     2.2713971
O           1.0988138    -1.6131708    -0.4714764
21
279_C7H10N2O2_1-0-13-14 (15,) energy =    -532.6953663
C           1.7824069    -0.2908046    -1.1052907
N           1.9990165    -1.1825610    -2.1588653
C           0.8722720    -1.5214975    -3.0183808
H           0.1368141    -2.1693298    -2.5216499
H           1.2446991    -2.0229637    -3.9164462
H           0.3639655    -0.5996330    -3.3044024
H           2.6275979    -1.9492689    -1.9495867
C           3.0514633     0.4253294     1.0490267
O           1.9806110     0.8359517     1.7653189
C           2.2426034     1.2829732     3.0859436
H           1.2762803     1.5703627     3.5038820
H           2.9131512     2.1529472     3.0897389
H           2.6835670     0.4862583     3.7006958
C           2.9526841    -0.0772870    -0.2488720
N           4.2431167    -0.4535969    -0.6197864
H           4.5009134    -0.6307340    -1.5795834
C           5.1238147    -0.1519759     0.3765895
H           6.1848654    -0.3196723     0.2584918
C           4.4186197     0.3708611     1.4443559
H           4.8386542     0.6679333     2.3938262
O           0.7157894     0.2946673    -0.9600293
21
279_C7H10N2O2_1-0-13-14 (30,) energy =    -532.6948809
C           1.8148394    -0.2278405    -1.1665221
N           1.9603741    -1.2483216    -2.1021104
C           0.8527717    -1.5499387    -2.9971704
H           0.0266224    -2.0660498    -2.4889591
H           1.2134316    -2.1734453    -3.8204420
H           0.4636013    -0.6125925    -3.3976529
H           2.5262260    -2.0349907    -1.8091252
C           3.0571453     0.4081269     1.0376645
O           1.9754863     0.7809620     1.7621168
C           2.2309628     1.2253847     3.0842902
H           1.2596012     1.4853720     3.5087003
H           2.8793952     2.1120054     3.0918266
H           2.6947999     0.4361413     3.6921683
C           2.9665955    -0.0808247    -0.2644783
N           4.2655751    -0.3973821    -0.6538030
H           4.5162892    -0.5970947    -1.6106031
C           5.1422812    -0.0988020     0.3459807
H           6.2062089    -0.2413416     0.2220433
C           4.4260329     0.3806361     1.4279360
H           4.8415690     0.6696109     2.3819526
O           0.8215808     0.4883020    -1.1327973
21
279_C7H10N2O2_1-0-13-14 (45,) energy =    -532.6929591
C           1.8743820    -0.1560155    -1.2065305
N           1.9124888    -1.2802194    -2.0162180
C           0.8249994    -1.5472949    -2.9441458
H          -0.0562316    -1.9747499    -2.4463305
H           1.1674666    -2.2381588    -3.7202739
H           0.5247473    -0.6047123    -3.4043620
H           2.4161217    -2.0778106    -1.6509936
C           3.0701119     0.3899389     1.0522474
O           1.9661618     0.7144189     1.7709856
C           2.1941381     1.1601669     3.0971068
H           1.2112506     1.3883943     3.5134707
H           2.8152113     2.0660745     3.1153708
H           2.6759959     0.3828467     3.7066432
C           3.0062582    -0.0709014    -0.2597958
N           4.3177713    -0.3217138    -0.6489414
H           4.5807028    -0.5445689    -1.5968733
C           5.1766792    -0.0338410     0.3690299
H           6.2450345    -0.1455461     0.2527607
C           4.4348267     0.3932430     1.4563582
H           4.8321127     0.6693701     2.4219199
O           0.9859247     0.6824966    -1.2894253
21
279_C7H10N2O2_1-0-13-14 (60,) energy =    -532.6903583
C           1.9548847    -0.1116297    -1.2675288
N           1.8503773    -1.3190645    -1.9245927
C           0.7723755    -1.5670275    -2.8673386
H          -0.1608651    -1.8573018    -2.3658293
H           1.0654630    -2.3597363    -3.5620633
H           0.5829686    -0.6474067    -3.4233819
H           2.2982254    -2.1148032    -1.4911733
C           3.0952614     0.3601121     1.0386679
O           1.9628742     0.6269625     1.7419966
C           2.1494204     1.0784639     3.0721243
H           1.1513281     1.2664291     3.4724943
H           2.7339009     2.0081212     3.1028389
H           2.6510713     0.3197273     3.6893213
C           3.0714822    -0.0607609    -0.2853545
N           4.3960503    -0.2466972    -0.6597654
H           4.6861916    -0.4665562    -1.6001632
C           5.2276184     0.0323523     0.3847202
H           6.3004351    -0.0493269     0.2870645
C           4.4514891     0.3979342     1.4700370
H           4.8207788     0.6587555     2.4509262
O           1.1971256     0.8247833    -1.4858493
21
279_C7H10N2O2_1-0-13-14 (75,) energy =    -532.6882475
C           2.0694848    -0.0550798    -1.3977527
N           1.7802589    -1.3198083    -1.8473409
C           0.7013494    -1.5779791    -2.7850095
H          -0.2267244    -1.8671258    -2.2741646
H           0.9853562    -2.3739678    -3.4811821
H           0.5154808    -0.6568462    -3.3390283
H           2.1599746    -2.0922906    -1.3182157
C           3.1474131     0.3374133     0.9576800
O           1.9856262     0.5630134     1.6330502
C           2.1233627     0.9801348     2.9799125
H           1.1106163     1.1420569     3.3544284
H           2.6922481     1.9169843     3.0547599
H           2.6173092     0.2121917     3.5920760
C           3.1695000    -0.0175482    -0.3824387
N           4.5032696    -0.1793932    -0.7242238
H           4.8274829    -0.3710221    -1.6595140
C           5.3013876     0.0576407     0.3587159
H           6.3767463    -0.0181214     0.2898682
C           4.4898325     0.3693406     1.4336555
H           4.8257400     0.5921680     2.4357683
O           1.4930400     0.9454545    -1.8045758
21
279_C7H10N2O2_1-0-13-14 (90,) energy =    -532.6880672
C           2.1832437     0.0186685    -1.5401272
N           1.6967482    -1.2502765    -1.7094332
C           0.6018176    -1.5473813    -2.6168383
H          -0.3598728    -1.6152466    -2.0914394
H           0.7871975    -2.4915237    -3.1396607
H           0.5456261    -0.7343197    -3.3418074
H           1.9502532    -1.9342697    -1.0102025
C           3.1646218     0.3452664     0.8760855
O           1.9689456     0.4982085     1.5179055
C           2.0446638     0.8445168     2.8897298
H           1.0147839     0.9624601     3.2329683
H           2.5871930     1.7883896     3.0367152
H           2.5338792     0.0560736     3.4792205
C           3.2485687     0.1164777    -0.4867366
N           4.5915878    -0.0418268    -0.7799305
H           4.9564340    -0.1297612    -1.7159891
C           5.3437199     0.1196543     0.3508778
H           6.4217087     0.0575753     0.3209544
C           4.4870756     0.3519264     1.4096394
H           4.7792754     0.5014272     2.4387619
O           1.8338308     0.9681883    -2.2315783
21
279_C7H10N2O2_1-0-13-14 (105,) energy =    -532.6912698
C           2.3263960     0.0024778    -1.6652151
N           1.6473574    -1.1832501    -1.5572172
C           0.5482584    -1.5211054    -2.4462566
H          -0.4291211    -1.2862569    -2.0037763
H           0.5778605    -2.5873073    -2.6934556
H           0.6707026    -0.9340046    -3.3572458
H           1.7060182    -1.6569037    -0.6657209
C           3.1951350     0.3364339     0.7938032
O           1.9725072     0.3929761     1.4026979
C           1.9878271     0.6641432     2.7944715
H           0.9431759     0.7160497     3.1080548
H           2.4810690     1.6214252     3.0102192
H           2.4946738    -0.1335216     3.3555291
C           3.3305866     0.2256373    -0.5821337
N           4.6841013     0.0847509    -0.8306099
H           5.0758691     0.0851176    -1.7607190
C           5.3921416     0.1899480     0.3321596
H           6.4718176     0.1545166     0.3367004
C           4.4959689     0.3410320     1.3742909
H           4.7505392     0.4338567     2.4199739
O           2.2321872     0.7414205    -2.6416989
21
279_C7H10N2O2_1-0-13-14 (120,) energy =    -532.6968450
C           2.4204351    -0.0631639    -1.7280697
N           1.5703615    -1.1058041    -1.4622143
C           0.4946610    -1.4571015    -2.3746122
H          -0.4570881    -0.9812160    -2.1009520
H           0.3553829    -2.5428834    -2.3879583
H           0.7825270    -1.1169800    -3.3700934
H           1.4671936    -1.3600630    -0.4878281
C           3.2205083     0.3305175     0.7461672
O           1.9905637     0.3038178     1.3441099
C           1.9789673     0.5215181     2.7465590
H           0.9305719     0.5033883     3.0508876
H           2.4160942     1.4959431     3.0012019
H           2.5260498    -0.2676794     3.2803199
C           3.3704842     0.2538776    -0.6333400
N           4.7305550     0.1768698    -0.8696241
H           5.1165962     0.1932130    -1.8025964
C           5.4228733     0.2945849     0.2973094
H           6.5030129     0.3082875     0.3123040
C           4.5123868     0.3901061     1.3369648
H           4.7559997     0.4810657     2.3854234
O           2.5274217     0.4503168    -2.8418726
21
279_C7H10N2O2_1-0-13-14 (135,) energy =    -532.7028044
C           2.4943532    -0.1830305    -1.7338034
N           1.4931166    -1.0525743    -1.3893079
C           0.4491166    -1.4175738    -2.3308466
H          -0.4587998    -0.8117143    -2.2033063
H           0.1867774    -2.4738178    -2.2103887
H           0.8397678    -1.2552469    -3.3361713
H           1.2989000    -1.1440436    -0.3994961
C           3.2360355     0.2996515     0.7475721
O           2.0051861     0.2235262     1.3399532
C           1.9793487     0.4164281     2.7466462
H           0.9317666     0.3486487     3.0462640
H           2.3733493     1.4044092     3.0178335
H           2.5589286    -0.3577510     3.2672184
C           3.3984080     0.1979510    -0.6309634
N           4.7606461     0.2047744    -0.8590523
H           5.1391415     0.2013016    -1.7957195
C           5.4380133     0.3847679     0.3056451
H           6.5157455     0.4567752     0.3273664
C           4.5173539     0.4467285     1.3414954
H           4.7505461     0.5731735     2.3886153
O           2.7448967     0.1361597    -2.8985268
21
279_C7H10N2O2_1-0-13-14 (150,) energy =    -532.7076909
C           2.5573198    -0.2963222    -1.7195646
N           1.4304169    -0.9837061    -1.3595725
C           0.4208831    -1.3589823    -2.3315747
H          -0.4397720    -0.6757742    -2.3217520
H           0.0634828    -2.3756595    -2.1353391
H           0.8838831    -1.3245828    -3.3186127
H           1.1837366    -0.9728884    -0.3774206
C           3.2458010     0.2625622     0.7670650
O           2.0161666     0.1440180     1.3545067
C           1.9752474     0.3412953     2.7605756
H           0.9311911     0.2235816     3.0566904
H           2.3192762     1.3486229     3.0282502
H           2.5905493    -0.4016691     3.2850486
C           3.4244175     0.1195987    -0.6068469
N           4.7809593     0.2268314    -0.8328925
H           5.1572785     0.1913524    -1.7701223
C           5.4388518     0.4817748     0.3271948
H           6.5095642     0.6236928     0.3511371
C           4.5108855     0.5114916     1.3597179
H           4.7303353     0.6850799     2.4030374
O           2.9124984    -0.1298762    -2.8908262
21
279_C7H10N2O2_1-0-13-14 (165,) energy =    -532.7107790
C           2.6006467    -0.4108597    -1.6788389
N           1.3717355    -0.9010527    -1.3377240
C           0.3970554    -1.3011496    -2.3327901
H          -0.4279437    -0.5802064    -2.4126779
H          -0.0208726    -2.2853237    -2.0917635
H           0.9104911    -1.3551833    -3.2937495
H           1.0910516    -0.8175565    -0.3687157
C           3.2450180     0.2128971     0.8083713
O           2.0195044     0.0528545     1.3937924
C           1.9625361     0.2753443     2.7956761
H           0.9254465     0.1066618     3.0914250
H           2.2505787     1.3048957     3.0443276
H           2.6154239    -0.4231732     3.3351051
C           3.4412058     0.0290183    -0.5587788
N           4.7845027     0.2345303    -0.7890779
H           5.1644539     0.1683384    -1.7234511
C           5.4204682     0.5623804     0.3640061
H           6.4793285     0.7756553     0.3858313
C           4.4890859     0.5605502     1.3948711
H           4.6928705     0.7816080     2.4323841
O           3.0349528    -0.3850096    -2.8362276
21
279_C7H10N2O2_1-0-13-14 (180,) energy =    -532.7118174
C           2.6591642    -0.5037799    -1.6473290
N           1.3561504    -0.7814580    -1.3485093
C           0.4097390    -1.2344587    -2.3469707
H          -0.4332445    -0.5385422    -2.4431260
H           0.0155116    -2.2290206    -2.1025019
H           0.9379491    -1.2864933    -3.3000561
H           1.0596348    -0.6633076    -0.3881839
C           3.2749082     0.1680553     0.8361636
O           2.0553323    -0.0289033     1.4223921
C           1.9803591     0.2380316     2.8156558
H           0.9505382     0.0317268     3.1128890
H           2.2200445     1.2873600     3.0309634
H           2.6613733    -0.4118741     3.3802426
C           3.4878667    -0.0571524    -0.5224143
N           4.8122257     0.2381786    -0.7623149
H           5.1990481     0.1504867    -1.6922021
C           5.4259523     0.6348201     0.3808998
H           6.4705563     0.9099328     0.3966624
C           4.4953199     0.6050197     1.4122682
H           4.6843105     0.8663902     2.4431909
O           3.1454616    -0.6093075    -2.7797179
