26
427_C12H11NO2_1-0-20-18 (-165,) energy =    -669.0989801
C           2.4989983    -1.4368015    -0.6262916
C           1.1874904    -0.9730207    -0.4164843
H           1.0408614     0.0627765    -0.1341119
C           0.0663302    -1.7756923    -0.5957546
H          -0.9246324    -1.3659808    -0.4264010
C           0.2300133    -3.0971846    -1.0029624
H          -0.6311846    -3.7419685    -1.1532899
C           1.5097173    -3.5983588    -1.2300371
H           1.6280715    -4.6261133    -1.5504990
C           2.6365752    -2.7888312    -1.0469196
O           3.9049827    -3.2613906    -1.2565870
C           4.1008386    -4.6205046    -1.6310664
H           5.1812026    -4.7489715    -1.7088114
H           3.6356431    -4.8391728    -2.5998140
H           3.7045341    -5.3016855    -0.8689365
C           5.8825457     1.1442583     0.0644907
H           6.7575163     1.7663071     0.2149682
C           6.0681731    -0.0783409    -0.6882547
N           4.8824322    -0.8262707    -0.8407464
H           5.0037525    -1.7006545    -1.3376215
C           3.6365497    -0.5163233    -0.3592576
C           3.5146944     0.6488655     0.3716533
H           2.5721992     0.9264062     0.8219365
C           4.6546996     1.4718402     0.5683827
H           4.5374709     2.3864953     1.1453522
O           7.1161264    -0.4981070    -1.1758052
26
427_C12H11NO2_1-0-20-18 (-150,) energy =    -669.0999143
C           2.4932242    -1.4387845    -0.6351370
C           1.1877459    -0.9373848    -0.5067509
H           1.0598990     0.1110381    -0.2592892
C           0.0625695    -1.7296693    -0.7183414
H          -0.9297644    -1.3019898    -0.6136721
C           0.2262862    -3.0647340    -1.0787735
H          -0.6381579    -3.6991853    -1.2532097
C           1.5065625    -3.5968099    -1.2313766
H           1.6208244    -4.6353548    -1.5176234
C           2.6348926    -2.7983748    -1.0176064
O           3.9116805    -3.2713261    -1.1557754
C           4.1167226    -4.6434748    -1.4718450
H           5.1987114    -4.7796778    -1.4972124
H           3.6933176    -4.8972311    -2.4514776
H           3.6830879    -5.2954409    -0.7041557
C           5.8656167     1.1412076     0.0344224
H           6.7376054     1.7708505     0.1701314
C           6.0001359     0.0329329    -0.8899184
N           4.8219034    -0.7320466    -1.0169491
H           4.9165976    -1.5463090    -1.6120169
C           3.6381893    -0.5377024    -0.3535994
C           3.5635550     0.5156145     0.5320285
H           2.6615891     0.6821813     1.1059482
C           4.6969760     1.3539364     0.7109888
H           4.6255330     2.1810369     1.4138689
O           6.9999209    -0.2782992    -1.5336652
26
427_C12H11NO2_1-0-20-18 (-135,) energy =    -669.0994299
C           2.4877256    -1.4433155    -0.6261855
C           1.1932835    -0.9073543    -0.5863054
H           1.0799145     0.1489314    -0.3628469
C           0.0668323    -1.6890729    -0.8390053
H          -0.9230781    -1.2449188    -0.8012978
C           0.2286392    -3.0358107    -1.1535812
H          -0.6367781    -3.6604515    -1.3569575
C           1.5054032    -3.5968652    -1.2234509
H           1.6144006    -4.6449411    -1.4758747
C           2.6330606    -2.8095282    -0.9715942
O           3.9135999    -3.2834910    -1.0351162
C           4.1246604    -4.6628684    -1.3100994
H           5.2058831    -4.8056111    -1.2848544
H           3.7433167    -4.9383191    -2.3014098
H           3.6536875    -5.2963587    -0.5484641
C           5.8552513     1.1376307     0.0095423
H           6.7230208     1.7764810     0.1287652
C           5.9147028     0.1545057    -1.0553822
N           4.7437976    -0.6266911    -1.1548939
H           4.7938009    -1.3616213    -1.8502437
C           3.6446807    -0.5610701    -0.3386135
C           3.6356387     0.3768938     0.6670922
H           2.7871181     0.4431760     1.3364136
C           4.7636697     1.2289239     0.8267560
H           4.7517554     1.9654869     1.6270496
O           6.8462272    -0.0397964    -1.8326249
26
427_C12H11NO2_1-0-20-18 (-120,) energy =    -669.0978541
C           2.4792416    -1.4370619    -0.6426215
C           1.1966344    -0.8804084    -0.6903789
H           1.0884302     0.1830222    -0.4982011
C           0.0754863    -1.6600828    -0.9790940
H          -0.9104824    -1.2066484    -1.0088069
C           0.2393384    -3.0183109    -1.2382421
H          -0.6221403    -3.6401112    -1.4661232
C           1.5101058    -3.5986800    -1.2172989
H           1.6181798    -4.6567394    -1.4252825
C           2.6313737    -2.8134533    -0.9313348
O           3.9106167    -3.2880384    -0.9044434
C           4.1312643    -4.6732468    -1.1342590
H           5.2090309    -4.8186239    -1.0477517
H           3.8028260    -4.9722450    -2.1378894
H           3.6180206    -5.2890276    -0.3850101
C           5.8585900     1.1242101    -0.0118727
H           6.7264172     1.7645317     0.0990524
C           5.8075647     0.3067182    -1.2099195
N           4.6410298    -0.4843717    -1.2890082
H           4.6080628    -1.0924548    -2.0988784
C           3.6477233    -0.5691763    -0.3484476
C           3.7363426     0.2187282     0.7717737
H           2.9609884     0.1686700     1.5262111
C           4.8662532     1.0718527     0.9259198
H           4.9366468     1.6904219     1.8178800
O           6.6428171     0.2567429    -2.1091297
26
427_C12H11NO2_1-0-20-18 (-105,) energy =    -669.0961508
C           2.4717376    -1.4251831    -0.6762032
C           1.2020792    -0.8579348    -0.8132249
H           1.0938963     0.2129892    -0.6663963
C           0.0895752    -1.6418271    -1.1267073
H          -0.8897597    -1.1838994    -1.2258307
C           0.2541167    -3.0115726    -1.3156277
H          -0.6011061    -3.6358907    -1.5599595
C           1.5148711    -3.6026461    -1.1987743
H           1.6214864    -4.6703134    -1.3514756
C           2.6275053    -2.8134751    -0.8879084
O           3.8985813    -3.2902015    -0.7644998
C           4.1247484    -4.6814795    -0.9423285
H           5.1955557    -4.8282879    -0.7935977
H           3.8497149    -5.0081027    -1.9535115
H           3.5692780    -5.2753293    -0.2052443
C           5.8684131     1.1083357    -0.0237999
H           6.7374283     1.7471338     0.0868628
C           5.6802517     0.4964217    -1.3262981
N           4.5210731    -0.3077450    -1.3939978
H           4.3799368    -0.7586918    -2.2908753
C           3.6475801    -0.5654711    -0.3697340
C           3.8597157     0.0343889     0.8437014
H           3.1757718    -0.1524430     1.6622599
C           4.9952353     0.8810976     1.0020229
H           5.1662408     1.3525415     1.9672590
O           6.3979135     0.6208899    -2.3150769
26
427_C12H11NO2_1-0-20-18 (-90,) energy =    -669.0951192
C           2.4742222    -1.4156258    -0.7336789
C           1.2201788    -0.8404798    -0.9531056
H           1.1194992     0.2378061    -0.8644103
C           0.1103184    -1.6261024    -1.2721354
H          -0.8577482    -1.1628006    -1.4358181
C           0.2625935    -3.0063708    -1.3766332
H          -0.5906402    -3.6325309    -1.6233186
C           1.5071261    -3.6062703    -1.1691241
H           1.6034830    -4.6821393    -1.2576395
C           2.6174812    -2.8154594    -0.8516211
O           3.8726435    -3.3008951    -0.6408427
C           4.0872677    -4.7010517    -0.7447805
H           5.1481774    -4.8534296    -0.5406177
H           3.8539432    -5.0705229    -1.7517170
H           3.4914209    -5.2548097    -0.0078472
C           5.8723493     1.1063233    -0.0355807
H           6.7371634     1.7490353     0.0850980
C           5.5352488     0.7271943    -1.3950138
N           4.3941028    -0.1034637    -1.4666007
H           4.1452000    -0.3889739    -2.4071723
C           3.6509492    -0.5598088    -0.4091014
C           4.0012177    -0.1767265     0.8577274
H           3.4224724    -0.5240303     1.7045164
C           5.1350843     0.6697188     1.0287412
H           5.4152625     0.9719824     2.0353783
O           6.1210473     1.0520209    -2.4243156
26
427_C12H11NO2_1-0-20-18 (-75,) energy =    -669.0952358
C           2.5023450    -1.4216467    -0.7948875
C           1.2678041    -0.8365593    -1.0917712
H           1.1854305     0.2467581    -1.0627865
C           0.1536220    -1.6153941    -1.4101813
H          -0.7977727    -1.1429526    -1.6342795
C           0.2792237    -3.0021332    -1.4302930
H          -0.5772535    -3.6245498    -1.6751325
C           1.5008145    -3.6129320    -1.1375191
H           1.5759874    -4.6937690    -1.1622997
C           2.6163136    -2.8294638    -0.8181323
O           3.8475449    -3.3331824    -0.5263448
C           4.0312642    -4.7411412    -0.5556066
H           5.0789401    -4.9075858    -0.3002987
H           3.8302253    -5.1527922    -1.5531084
H           3.3927275    -5.2461517     0.1806911
C           5.8602332     1.1375284    -0.0446917
H           6.7077045     1.8002791     0.0896387
C           5.3780421     0.9746859    -1.4029461
N           4.2731564     0.0971083    -1.4915101
H           3.9276284    -0.0441939    -2.4343767
C           3.6718639    -0.5650751    -0.4520233
C           4.1603052    -0.3849720     0.8144693
H           3.6987082    -0.9004127     1.6472545
C           5.2736269     0.4833882     1.0023170
H           5.6607051     0.6271101     2.0086518
O           5.8231092     1.5016456    -2.4190932
26
427_C12H11NO2_1-0-20-18 (-60,) energy =    -669.0962677
C           2.5443866    -1.4375266    -0.8422042
C           1.3340499    -0.8403803    -1.2142813
H           1.2761714     0.2448464    -1.2360062
C           0.2126906    -1.6044650    -1.5394679
H          -0.7165798    -1.1191439    -1.8213363
C           0.3013214    -2.9931542    -1.4881639
H          -0.5605675    -3.6061438    -1.7374765
C           1.4936327    -3.6170630    -1.1145987
H           1.5409611    -4.6992468    -1.0842796
C           2.6166892    -2.8487755    -0.7853190
O           3.8163078    -3.3766116    -0.4146912
C           3.9583830    -4.7893171    -0.3820050
H           4.9892100    -4.9750058    -0.0762303
H           3.7865986    -5.2340579    -1.3706439
H           3.2753048    -5.2468581     0.3453205
C           5.8413934     1.1863894    -0.0567390
H           6.6632620     1.8780216     0.0901711
C           5.2132900     1.1984957    -1.3635500
N           4.1562216     0.2664059    -1.4727143
H           3.7183267     0.2403914    -2.3870285
C           3.7075027    -0.5819920    -0.4913278
C           4.3354902    -0.5649170     0.7268312
H           4.0021765    -1.2299812     1.5127757
C           5.4161593     0.3390348     0.9285441
H           5.9100565     0.3538902     1.8975861
O           5.5081436     1.9027583    -2.3257444
26
427_C12H11NO2_1-0-20-18 (-45,) energy =    -669.0973159
C           2.7951981    -1.8545235    -0.1995339
C           2.0141135    -2.0858253     0.9418365
H           2.2619567    -1.5569279     1.8584384
C           0.9549592    -2.9926567     0.9364784
H           0.3729643    -3.1563599     1.8381214
C           0.6639182    -3.6884427    -0.2337545
H          -0.1569382    -4.3998406    -0.2595873
C           1.4247158    -3.4843949    -1.3865555
H           1.1801717    -4.0334790    -2.2880595
C           2.4907247    -2.5774595    -1.3793137
O           3.2701208    -2.3241220    -2.4675928
C           2.9580699    -2.9646019    -3.6964690
H           3.6841643    -2.5869039    -4.4181037
H           1.9446489    -2.7134009    -4.0343737
H           3.0556107    -4.0551930    -3.6196915
C           5.8591768     1.1153543     0.2188825
H           6.5971178     1.8961862     0.3640616
C           4.5234522     1.3867164     0.7121659
N           3.6250602     0.3212269     0.4808552
H           2.6760917     0.5120573     0.7824561
C           3.9057777    -0.8745044    -0.1362583
C           5.1820006    -1.0822873    -0.5971950
H           5.4321819    -2.0128612    -1.0871774
C           6.1562803    -0.0633853    -0.4071780
H           7.1671326    -0.2368482    -0.7695079
O           4.1288590     2.4062598     1.2725146
26
427_C12H11NO2_1-0-20-18 (-30,) energy =    -669.0971413
C           2.7925243    -1.8381931    -0.2168010
C           1.9547025    -2.0083899     0.8976539
H           2.1741696    -1.4573334     1.8077027
C           0.8859186    -2.9021973     0.8949727
H           0.2703596    -3.0154711     1.7819198
C           0.6277240    -3.6490243    -0.2507272
H          -0.2000796    -4.3522183    -0.2756393
C           1.4346922    -3.5039069    -1.3798081
H           1.2169333    -4.0891526    -2.2650636
C           2.5104980    -2.6088277    -1.3757587
O           3.3174239    -2.4155158    -2.4566511
C           3.0212188    -3.0974343    -3.6673036
H           3.7671514    -2.7562252    -4.3868916
H           2.0186267    -2.8450939    -4.0347615
H           3.1024052    -4.1854020    -3.5482813
C           5.8650010     1.1271422     0.2441300
H           6.6087769     1.8985356     0.4085560
C           4.5833619     1.3095351     0.8950149
N           3.6759501     0.2603823     0.6318702
H           2.7577185     0.4179420     1.0299962
C           3.8881986    -0.8421233    -0.1649857
C           5.1173711    -0.9643875    -0.7696480
H           5.3308559    -1.8240380    -1.3865293
C           6.1000461     0.0400819    -0.5503260
H           7.0693375    -0.0716884    -1.0311230
O           4.2373309     2.2490153     1.6071595
26
427_C12H11NO2_1-0-20-18 (-15,) energy =    -669.0951586
C           2.7826338    -1.8166549    -0.2318606
C           1.8834455    -1.9357716     0.8438196
H           2.0583316    -1.3652854     1.7502643
C           0.8091251    -2.8211289     0.8349243
H           0.1562895    -2.8874616     1.6996345
C           0.5920925    -3.6169230    -0.2852151
H          -0.2387211    -4.3161710    -0.3156261
C           1.4484308    -3.5213709    -1.3810760
H           1.2658057    -4.1413860    -2.2501545
C           2.5285240    -2.6312003    -1.3718512
O           3.3634096    -2.4929204    -2.4399712
C           3.0974927    -3.2239508    -3.6291175
H           3.8644712    -2.9147753    -4.3410533
H           2.1067058    -2.9836481    -4.0340814
H           3.1716922    -4.3060108    -3.4628724
C           5.8773254     1.1400763     0.2602976
H           6.6300327     1.8995368     0.4386990
C           4.6722829     1.2130924     1.0598124
N           3.7511387     0.1836750     0.7717274
H           2.8819829     0.2961099     1.2775199
C           3.8669092    -0.8043542    -0.1831402
C           5.0308853    -0.8239977    -0.9208087
H           5.1930768    -1.5978529    -1.6525118
C           6.0262170     0.1638932    -0.6834942
H           6.9370490     0.1276095    -1.2771126
O           4.3956416     2.0516004     1.9145026
26
427_C12H11NO2_1-0-20-18 (0,) energy =    -669.0928805
C           2.7181481    -1.7378672    -0.2807306
C           1.7692740    -1.8197312     0.7574483
H           1.8538684    -1.1800252     1.6282917
C           0.6904749    -2.6979453     0.7418477
H          -0.0053104    -2.7108408     1.5748670
C           0.5199153    -3.5484989    -0.3446137
H          -0.3138321    -4.2437500    -0.3818360
C           1.4299460    -3.5076526    -1.3976507
H           1.2909249    -4.1730076    -2.2404714
C           2.5155577    -2.6235224    -1.3813590
O           3.4090894    -2.5797077    -2.4091560
C           3.2382812    -3.4420440    -3.5256062
H           4.0655647    -3.2148060    -4.1999370
H           2.2880787    -3.2511919    -4.0393649
H           3.2899376    -4.4972557    -3.2303117
C           5.8871632     1.1608599     0.2452091
H           6.6562393     1.9020422     0.4301568
C           4.8664876     1.0044999     1.2583250
N           3.9077925     0.0215512     0.9378708
H           3.2129320    -0.0601712     1.6662909
C           3.8460522    -0.7701095    -0.1907089
C           4.8458831    -0.5776931    -1.1227773
H           4.8619518    -1.1589939    -2.0268194
C           5.8566900     0.3938628    -0.8837184
H           6.6299406     0.5204903    -1.6383076
O           4.7664740     1.6201906     2.3177394
26
427_C12H11NO2_1-0-20-18 (15,) energy =    -669.0951585
C           2.6542260    -1.6535091    -0.3166827
C           1.6813855    -1.6717038     0.6997252
H           1.7329500    -0.9402491     1.4997412
C           0.5947756    -2.5419846     0.6889851
H          -0.1381473    -2.5015237     1.4886751
C           0.4603563    -3.4501400    -0.3560952
H          -0.3793933    -4.1385903    -0.3872789
C           1.4090029    -3.4788210    -1.3771528
H           1.2972140    -4.1947318    -2.1821617
C           2.5012502    -2.6036340    -1.3661410
O           3.4612980    -2.6295949    -2.3328964
C           3.3937958    -3.6163828    -3.3531381
H           4.2811090    -3.4623403    -3.9692945
H           2.4962741    -3.4956105    -3.9727120
H           3.4138877    -4.6294236    -2.9327361
C           5.8645885     1.1642952     0.2439241
H           6.6471476     1.8883810     0.4400642
C           5.0657220     0.7417927     1.3752710
N           4.0655237    -0.1925076     1.0318787
H           3.5711294    -0.5402186     1.8434532
C           3.8232544    -0.7456325    -0.2077239
C           4.6167315    -0.3135089    -1.2484368
H           4.4452074    -0.6813725    -2.2463594
C           5.6381341     0.6442745    -0.9987047
H           6.2511151     0.9711736    -1.8358016
O           5.1822154     1.1015231     2.5444998
26
427_C12H11NO2_1-0-20-18 (30,) energy =    -669.0971415
C           2.6360828    -1.6390754    -0.3317000
C           1.6258195    -1.5907056     0.6430348
H           1.6742396    -0.8250317     1.4120773
C           0.5328901    -2.4546488     0.6247064
H          -0.2346430    -2.3756363     1.3882966
C           0.4363986    -3.4068803    -0.3856726
H          -0.4072438    -4.0905800    -0.4197299
C           1.4229575    -3.4895213    -1.3689914
H           1.3353647    -4.2397634    -2.1455821
C           2.5188067    -2.6193172    -1.3525795
O           3.5184440    -2.6698898    -2.2772239
C           3.4915357    -3.6911434    -3.2645400
H           4.4006823    -3.5555956    -3.8525306
H           2.6170099    -3.5955923    -3.9206729
H           3.4978316    -4.6893878    -2.8091894
C           5.8562144     1.1458184     0.2359558
H           6.6503723     1.8555490     0.4381198
C           5.1882771     0.5713076     1.3862657
N           4.1672172    -0.3384370     1.0352598
H           3.7434784    -0.7917622     1.8361525
C           3.7938590    -0.7195160    -0.2338880
C           4.4651644    -0.1537093    -1.2925782
H           4.1894954    -0.4111221    -2.3039178
C           5.5022593     0.7844853    -1.0337902
H           6.0216500     1.2274642    -1.8806816
O           5.4271777     0.7897392     2.5714622
26
427_C12H11NO2_1-0-20-18 (45,) energy =    -669.0973160
C           2.6110699    -1.6269876    -0.3243976
C           1.5618806    -1.5137649     0.5989577
H           1.6041523    -0.7203034     1.3405615
C           0.4609244    -2.3689289     0.5693248
H          -0.3400512    -2.2518079     1.2926430
C           0.4007106    -3.3631684    -0.4033337
H          -0.4480419    -4.0402962    -0.4443958
C           1.4271261    -3.5004310    -1.3398679
H           1.3628665    -4.2831867    -2.0862871
C           2.5296186    -2.6386289    -1.3128781
O           3.5692117    -2.7189166    -2.1896840
C           3.5683005    -3.7575482    -3.1586401
H           4.4957460    -3.6367248    -3.7206582
H           2.7145709    -3.6706724    -3.8429950
H           3.5557380    -4.7479330    -2.6860288
C           5.8617726     1.1163581     0.2151843
H           6.6730649     1.8080275     0.4120008
C           5.3205039     0.4101621     1.3594216
N           4.2719612    -0.4718714     1.0149620
H           3.9098135    -1.0036286     1.7985409
C           3.7590788    -0.6926708    -0.2410384
C           4.3102231    -0.0083231    -1.2956894
H           3.9283177    -0.1617030    -2.2953435
C           5.3730871     0.9028484    -1.0438975
H           5.8015305     1.4461233    -1.8832211
O           5.6803436     0.5019463     2.5304307
26
427_C12H11NO2_1-0-20-18 (60,) energy =    -669.0962679
C           2.5763922    -1.6031627    -0.3286710
C           1.4866841    -1.4413066     0.5352263
H           1.5067946    -0.6219199     1.2492090
C           0.3838185    -2.2946095     0.4859967
H          -0.4516973    -2.1474646     1.1633319
C           0.3678976    -3.3276188    -0.4475984
H          -0.4817962    -4.0027676    -0.5020097
C           1.4379536    -3.5097061    -1.3264097
H           1.4053440    -4.3220669    -2.0428269
C           2.5423693    -2.6506846    -1.2782421
O           3.6267638    -2.7600039    -2.0951427
C           3.6651554    -3.8205078    -3.0389981
H           4.6173391    -3.7159132    -3.5614838
H           2.8431924    -3.7465152    -3.7627679
H           3.6268793    -4.8001277    -2.5454518
C           5.8726402     1.0881408     0.1842264
H           6.7048567     1.7570179     0.3724897
C           5.4677097     0.2351211     1.2845944
N           4.3814487    -0.6071148     0.9547648
H           4.0973848    -1.2304214     1.7025617
C           3.7223040    -0.6607811    -0.2481185
C           4.1433312     0.1583708    -1.2631607
H           3.6423597     0.1282169    -2.2219370
C           5.2359072     1.0387426    -1.0247938
H           5.5654493     1.6911136    -1.8303902
O           5.9624554     0.1820398     2.4076031
26
427_C12H11NO2_1-0-20-18 (75,) energy =    -669.0952357
C           2.5284197    -1.5627211    -0.3475018
C           1.4014821    -1.3641758     0.4556809
H           1.3897992    -0.5150855     1.1339983
C           0.3034847    -2.2241726     0.3907364
H          -0.5642118    -2.0514226     1.0198827
C           0.3356893    -3.2992601    -0.4938080
H          -0.5097788    -3.9788582    -0.5589697
C           1.4488374    -3.5209050    -1.3079377
H           1.4529208    -4.3658284    -1.9865818
C           2.5483145    -2.6566852    -1.2409902
O           3.6783880    -2.7960802    -1.9881874
C           3.7679093    -3.8902229    -2.8891842
H           4.7462220    -3.8022564    -3.3642380
H           2.9850948    -3.8447043    -3.6573156
H           3.7043052    -4.8514130    -2.3629188
C           5.8861795     1.0596905     0.1411156
H           6.7434889     1.6998934     0.3162378
C           5.6220078     0.0462006     1.1445581
N           4.4890476    -0.7434785     0.8419198
H           4.2932550    -1.4691453     1.5226686
C           3.6824281    -0.6246993    -0.2607762
C           3.9689626     0.3440469    -1.1851453
H           3.3438527     0.4521944    -2.0625496
C           5.0933154     1.1902042    -0.9645545
H           5.3199743     1.9603179    -1.6985351
O           6.2616017    -0.1701028     2.1704551
26
427_C12H11NO2_1-0-20-18 (90,) energy =    -669.0951190
C           2.4912244    -1.5204391    -0.3855861
C           1.3318461    -1.2812335     0.3561277
H           1.2922742    -0.3988083     0.9889491
C           0.2377394    -2.1466381     0.2868883
H          -0.6568407    -1.9433772     0.8674104
C           0.3104761    -3.2692325    -0.5339921
H          -0.5316992    -3.9528081    -0.6004460
C           1.4608525    -3.5356890    -1.2806314
H           1.4969454    -4.4163114    -1.9113581
C           2.5559947    -2.6671714    -1.2069683
O           3.7241337    -2.8428882    -1.8852805
C           3.8565771    -3.9768431    -2.7302004
H           4.8570976    -3.9097488    -3.1601796
H           3.1121461    -3.9663253    -3.5367077
H           3.7658234    -4.9131920    -2.1646103
C           5.8941649     1.0421951     0.1126775
H           6.7694539     1.6589627     0.2830214
C           5.7586116    -0.1318030     0.9545862
N           4.5900892    -0.8760180     0.6752578
H           4.4794366    -1.7071330     1.2454814
C           3.6552124    -0.5942715    -0.2868225
C           3.8194874     0.5242158    -1.0590638
H           3.0883743     0.7648171    -1.8207857
C           4.9651111     1.3440246    -0.8426735
H           5.0972547     2.2312374    -1.4579518
O           6.5254065    -0.5055432     1.8380353
26
427_C12H11NO2_1-0-20-18 (105,) energy =    -669.0961508
C           2.4782759    -1.4914895    -0.4338336
C           1.2896372    -1.2068600     0.2434357
H           1.2324727    -0.2938920     0.8294055
C           0.1920824    -2.0674397     0.1712977
H          -0.7244332    -1.8279905     0.7016571
C           0.2911830    -3.2345208    -0.5817444
H          -0.5534775    -3.9149440    -0.6484551
C           1.4727198    -3.5507756    -1.2573680
H           1.5295268    -4.4650538    -1.8365636
C           2.5711990    -2.6878003    -1.1799177
O           3.7696440    -2.9112524    -1.7897633
C           3.9261666    -4.0847447    -2.5751548
H           4.9459285    -4.0482329    -2.9612299
H           3.2188969    -4.1028640    -3.4141666
H           3.7977005    -4.9928950    -1.9721820
C           5.8886937     1.0500755     0.1055568
H           6.7696912     1.6574464     0.2800547
C           5.8733609    -0.2585491     0.7329467
N           4.6884676    -0.9809617     0.4700755
H           4.6643128    -1.9054323     0.8853388
C           3.6445069    -0.5736975    -0.3190930
C           3.6969315     0.6703029    -0.8909490
H           2.8779065     1.0113547    -1.5119257
C           4.8468192     1.4816702    -0.6655498
H           4.8904171     2.4669196    -1.1244170
O           6.7490185    -0.7538237     1.4373128
26
427_C12H11NO2_1-0-20-18 (120,) energy =    -669.0978541
C           2.4839193    -1.4799234    -0.4636051
C           1.2669104    -1.1492321     0.1420770
H           1.2007133    -0.2136582     0.6896410
C           0.1579546    -1.9923002     0.0544079
H          -0.7770429    -1.7143391     0.5310109
C           0.2699211    -3.1942888    -0.6394718
H          -0.5827133    -3.8634460    -0.7167033
C           1.4779204    -3.5606279    -1.2383330
H           1.5466072    -4.5016201    -1.7714599
C           2.5877742    -2.7149587    -1.1451192
O           3.8102276    -2.9950915    -1.6833248
C           3.9729996    -4.1992180    -2.4207843
H           5.0108988    -4.2012049    -2.7568762
H           3.3065692    -4.2270909    -3.2920631
H           3.7910673    -5.0823575    -1.7950981
C           5.8806013     1.0707581     0.1163049
H           6.7597415     1.6802310     0.2926864
C           5.9698740    -0.3227956     0.5114791
N           4.7816803    -1.0438553     0.2640690
H           4.8398984    -2.0284980     0.4960353
C           3.6446820    -0.5631961    -0.3315198
C           3.6026471     0.7602729    -0.6920397
H           2.7132609     1.1608878    -1.1625534
C           4.7474956     1.5743086    -0.4576452
H           4.7133122     2.6213364    -0.7504105
O           6.9344029    -0.8887327     1.0195447
26
427_C12H11NO2_1-0-20-18 (135,) energy =    -669.0994299
C           2.4852008    -1.4734360    -0.4845619
C           1.2411232    -1.1015117     0.0430183
H           1.1654768    -0.1513402     0.5626136
C           0.1199264    -1.9222415    -0.0716689
H          -0.8303544    -1.6068953     0.3480282
C           0.2383966    -3.1515965    -0.7147050
H          -0.6231550    -3.8065257    -0.8110304
C           1.4682413    -3.5628413    -1.2325695
H           1.5451153    -4.5253023    -1.7243263
C           2.5911074    -2.7382002    -1.1139108
O           3.8296291    -3.0780872    -1.5818727
C           3.9875849    -4.3041245    -2.2852340
H           5.0378403    -4.3420463    -2.5777769
H           3.3563468    -4.3318602    -3.1818801
H           3.7550648    -5.1664040    -1.6477323
C           5.8730797     1.0922663     0.1031550
H           6.7514689     1.7049830     0.2716300
C           6.0374139    -0.3387465     0.2743966
N           4.8476378    -1.0641109     0.0519138
H           4.9596706    -2.0695868     0.1029642
C           3.6376127    -0.5515166    -0.3376634
C           3.5294130     0.8096578    -0.5012986
H           2.5899885     1.2423174    -0.8217125
C           4.6720610     1.6255831    -0.2721362
H           4.5806409     2.7009322    -0.4077726
O           7.0673253    -0.9343317     0.5812414
26
427_C12H11NO2_1-0-20-18 (150,) energy =    -669.0999143
C           2.4924108    -1.4752620    -0.4760081
C           1.2207642    -1.0744578    -0.0350657
H           1.1262915    -0.1159655     0.4640758
C           0.0934803    -1.8772271    -0.1877031
H          -0.8710674    -1.5321178     0.1716512
C           0.2219550    -3.1265369    -0.7892397
H          -0.6438938    -3.7707354    -0.9138894
C           1.4706362    -3.5676382    -1.2270795
H           1.5586338    -4.5438752    -1.6883675
C           2.6011042    -2.7585941    -1.0727419
O           3.8480279    -3.1451925    -1.4834476
C           4.0074122    -4.3926559    -2.1491556
H           5.0672468    -4.4580623    -2.3988905
H           3.4111701    -4.4294604    -3.0687131
H           3.7325759    -5.2324214    -1.4990754
C           5.8794656     1.1114035     0.0849431
H           6.7587831     1.7275724     0.2345008
C           6.0863285    -0.3229052     0.0577446
N           4.8949327    -1.0536162    -0.1325118
H           5.0291305    -2.0542375    -0.2152416
C           3.6352590    -0.5432299    -0.3105598
C           3.4898711     0.8272163    -0.2990503
H           2.5201515     1.2738235    -0.4747086
C           4.6337350     1.6451265    -0.0939805
H           4.5057171     2.7253219    -0.0884091
O           7.1537870    -0.9203412     0.1779405
26
427_C12H11NO2_1-0-20-18 (165,) energy =    -669.0989800