25
140_C13H10O2_0-7-8-19 (-165,) energy =    -651.8404270
C          -0.0668639     0.6436017    -1.2653808
O           0.0500677     1.3922461    -2.3909584
H          -0.8111929     1.4097314    -2.8385699
C          -1.2955400     0.0668014    -0.9169509
H          -2.1612861     0.2449736    -1.5530469
C          -1.4187101    -0.7162629     0.2264859
H          -2.3842137    -1.1463388     0.4789786
C           1.0797512     0.4089851    -0.4632762
C           2.3739842     1.1195555    -0.7257752
C          -0.3094985    -0.9388579     1.0430402
H          -0.3980420    -1.5342729     1.9464449
C           6.1174112    -0.2004974     0.9557614
H           7.0737147    -0.5148005     1.3655476
C           5.8164998     1.1600745     0.8438355
H           6.5386903     1.9054380     1.1661257
C           0.9141476    -0.3755400     0.6931915
H           1.7671611    -0.5221660     1.3457971
C           4.5958276     1.5629622     0.3089849
H           4.3586138     2.6150929     0.1879085
C           3.6453216     0.6120100    -0.0917076
C           3.9584931    -0.7513446     0.0161630
H           3.2470523    -1.4976337    -0.3248744
C           5.1913752    -1.1545271     0.5311958
H           5.4288349    -2.2129453     0.5973912
O           2.4169917     2.1507880    -1.3830669
25
140_C13H10O2_0-7-8-19 (-150,) energy =    -651.8420941
C          -0.0010962     0.5957537    -1.2679184
O           0.1963780     1.2985071    -2.4138594
H          -0.6109559     1.2509624    -2.9499639
C          -1.2186619    -0.0469222    -1.0123390
H          -2.0266228     0.0386635    -1.7373150
C          -1.4025854    -0.7825101     0.1558489
H          -2.3587976    -1.2657029     0.3376661
C           1.0665647     0.4794500    -0.3466659
C           2.3372537     1.2602979    -0.5236000
C          -0.3668581    -0.8951951     1.0835681
H          -0.5056300    -1.4578610     2.0015645
C           6.1337688    -0.2645755     0.8216923
H           7.1023401    -0.6320858     1.1505128
C           5.8942423     1.1113531     0.7511179
H           6.6762426     1.8144744     1.0250888
C           0.8501820    -0.2700513     0.8213174
H           1.6527616    -0.3396083     1.5484596
C           4.6567021     1.5818149     0.3225142
H           4.4581174     2.6454704     0.2392398
C           3.6325098     0.6843262    -0.0180087
C           3.8830963    -0.6945387     0.0495466
H           3.1096602    -1.3988902    -0.2404397
C           5.1301748    -1.1654689     0.4623008
H           5.3180642    -2.2351414     0.5001113
O           2.3263205     2.3768793    -1.0229339
25
140_C13H10O2_0-7-8-19 (-135,) energy =    -651.8425753
C           0.0680670     0.5489090    -1.2426862
O           0.3592508     1.2190594    -2.3909581
H          -0.3852508     1.1251202    -3.0055380
C          -1.1338700    -0.1499914    -1.0830887
H          -1.8658215    -0.1431860    -1.8891724
C          -1.3960961    -0.8458088     0.0956687
H          -2.3386735    -1.3755941     0.2036614
C           1.0322917     0.5368583    -0.2128014
C           2.2852515     1.3651376    -0.3133593
C          -0.4549238    -0.8642654     1.1250728
H          -0.6550926    -1.4012167     2.0471752
C           6.1343044    -0.2947776     0.6588301
H           7.1151864    -0.6978156     0.8971750
C           5.9382725     1.0895200     0.6150915
H           6.7662120     1.7630136     0.8196951
C           0.7499236    -0.1828993     0.9564791
H           1.4869495    -0.1878513     1.7544561
C           4.6839673     1.6048309     0.3051294
H           4.5122985     2.6749991     0.2509853
C           3.6034801     0.7445902     0.0503480
C           3.8094721    -0.6425880     0.0916791
H           2.9882651    -1.3177302    -0.1261257
C           5.0710736    -1.1582778     0.3909075
H           5.2236099    -2.2339654     0.4121595
O           2.2275650     2.5357458    -0.6613052
25
140_C13H10O2_0-7-8-19 (-120,) energy =    -651.8421359
C           0.2116456     0.5661872     1.2994434
O           0.7154870     1.0850492     2.4555537
H           0.0210578     1.5942599     2.9015362
C          -1.0954911     0.8251557     0.8736873
H          -1.7459497     1.4465651     1.4870575
C          -1.5631297     0.2916541    -0.3267757
H          -2.5831902     0.4968908    -0.6398957
C           1.0647897    -0.2282200     0.5111294
C           2.4491698    -0.5873193     0.9950454
C          -0.7268172    -0.4926027    -1.1209231
H          -1.0862781    -0.9093325    -2.0568094
C           5.9291284     0.5998191    -1.2325769
H           6.8190175     0.8948725    -1.7825517
C           4.6842662     1.1216652    -1.5874054
H           4.6032855     1.8268663    -2.4101391
C           0.5815557    -0.7351516    -0.7004110
H           1.2422972    -1.3429531    -1.3131578
C           3.5406374     0.7406556    -0.8846847
H           2.5750993     1.1533321    -1.1583242
C           3.6357002    -0.1634939     0.1836478
C           4.8943864    -0.6761588     0.5389561
H           4.9501853    -1.3663228     1.3745293
C           6.0323391    -0.3006145    -0.1667249
H           7.0018331    -0.7052418     0.1112343
O           2.5888616    -1.2213648     2.0301337
25
140_C13H10O2_0-7-8-19 (-105,) energy =    -651.8415008
C           0.3130458     0.5940031     1.1925875
O           0.9305192     1.1535537     2.2754503
H           0.3098669     1.7502641     2.7215948
C          -0.9898866     0.9303985     0.8132754
H          -1.5506984     1.6547412     1.4016897
C          -1.5656738     0.3407513    -0.3122804
H          -2.5805160     0.6076781    -0.5941205
C           1.0491785    -0.3361978     0.4405053
C           2.4310430    -0.7626399     0.8897205
C          -0.8432887    -0.5794715    -1.0712364
H          -1.2873400    -1.0401088    -1.9484568
C           5.9178679     0.7348802    -1.1209853
H           6.8085990     1.1073487    -1.6202797
C           4.6588527     1.2028711    -1.5006786
H           4.5674700     1.9403286    -2.2934679
C           0.4606739    -0.9051290    -0.6922865
H           1.0316318    -1.6217457    -1.2774122
C           3.5145982     0.7247355    -0.8616837
H           2.5358985     1.0902365    -1.1556103
C           3.6236897    -0.2253070     0.1642614
C           4.8951542    -0.6877923     0.5421210
H           4.9590924    -1.4193073     1.3411471
C           6.0345578    -0.2119840    -0.0973547
H           7.0152515    -0.5747283     0.1985453
O           2.5518026    -1.5409323     1.8230364
25
140_C13H10O2_0-7-8-19 (-90,) energy =    -651.8415877
C           0.4114003     0.6378027     1.0457468
O           1.1423700     1.2623586     2.0193124
H           0.5969153     1.9460082     2.4381629
C          -0.8949507     1.0158194     0.7228127
H          -1.3692212     1.8327739     1.2641539
C          -1.5856094     0.3441265    -0.2862517
H          -2.6011360     0.6449036    -0.5287397
C           1.0359209    -0.4128038     0.3561650
C           2.4137395    -0.8942463     0.7666286
C          -0.9780402    -0.7044225    -0.9764532
H          -1.5140563    -1.2316121    -1.7597997
C           5.9165537     0.8613000    -0.9848158
H           6.8107324     1.2969993    -1.4230717
C           4.6567695     1.3331276    -1.3578464
H           4.5684125     2.1351515    -2.0856110
C           0.3261866    -1.0783966    -0.6462047
H           0.8038552    -1.9026452    -1.1695449
C           3.5086930     0.7744728    -0.7963487
H           2.5283241     1.1383910    -1.0875897
C           3.6146211    -0.2614240     0.1426014
C           4.8858982    -0.7294632     0.5129330
H           4.9467025    -1.5307597     1.2422673
C           6.0297265    -0.1716580    -0.0477626
H           7.0110306    -0.5375975     0.2420905
O           2.5174995    -1.8155363     1.5616442
25
140_C13H10O2_0-7-8-19 (-75,) energy =    -651.8427494
C           0.4960643     0.6702754     0.8997868
O           1.3184093     1.3508527     1.7562806
H           0.8345879     2.1026870     2.1319888
C          -0.8168823     1.0741217     0.6391360
H          -1.2149733     1.9616526     1.1282546
C          -1.6124981     0.3354626    -0.2363570
H          -2.6310054     0.6588530    -0.4329730
C           1.0235631    -0.4724474     0.2772762
C           2.4001511    -0.9984154     0.6200489
C          -1.1076478    -0.8128200    -0.8473380
H          -1.7279026    -1.3952213    -1.5218023
C           5.9251009     0.9668833    -0.8427692
H           6.8251910     1.4515561    -1.2121199
C           4.6694403     1.4476994    -1.2187962
H           4.5904385     2.3046585    -1.8822232
C           0.1994059    -1.2160214    -0.5730301
H           0.5974366    -2.1217831    -1.0220270
C           3.5141772     0.8275892    -0.7439713
H           2.5380904     1.1982049    -1.0406916
C           3.6074893    -0.2819726     0.1079328
C           4.8742397    -0.7611154     0.4785222
H           4.9263624    -1.6230712     1.1357339
C           6.0258434    -0.1391541     0.0078408
H           7.0034046    -0.5131187     0.3001203
O           2.5002066    -2.0457610     1.2429195
25
140_C13H10O2_0-7-8-19 (-60,) energy =    -651.8440269
C           0.5651970     0.6824442     0.7853922
O           1.4513614     1.3981332     1.5419091
H           1.0074627     2.1887002     1.8864390
C          -0.7543720     1.1053098     0.5918118
H          -1.0905602     2.0380297     1.0418693
C          -1.6347699     0.3300844    -0.1607939
H          -2.6559283     0.6719369    -0.3059321
C           1.0141880    -0.5217311     0.2142945
C           2.3945977    -1.0818902     0.4506464
C          -1.2114121    -0.8806265    -0.7120620
H          -1.8979531    -1.4930685    -1.2885151
C           5.9389978     1.0501783    -0.7046126
H           6.8448819     1.5728960    -1.0006650
C           4.6935434     1.5162209    -1.1304289
H           4.6286661     2.3978933    -1.7623445
C           0.0997341    -1.3029269    -0.5036763
H           0.4411952    -2.2542033    -0.9008101
C           3.5304204     0.8503467    -0.7462877
H           2.5639643     1.2108611    -1.0835481
C           3.6046951    -0.2944930     0.0595076
C           4.8616675    -0.7630440     0.4730746
H           4.9018979    -1.6577737     1.0857403
C           6.0211782    -0.0908635     0.0997229
H           6.9902194    -0.4551455     0.4301451
O           2.5041755    -2.2200448     0.8889113
25
140_C13H10O2_0-7-8-19 (-45,) energy =    -651.8443416
C           0.6120667     0.6873514     0.6888137
O           1.5415954     1.4362502     1.3527265
H           1.1180495     2.2445417     1.6817999
C          -0.7153460     1.1157856     0.5656430
H          -1.0062909     2.0784825     0.9831083
C          -1.6586119     0.3132294    -0.0710265
H          -2.6832701     0.6635288    -0.1613926
C           1.0051269    -0.5588173     0.1617482
C           2.3917279    -1.1354007     0.2672254
C          -1.2916831    -0.9359378    -0.5766345
H          -2.0257105    -1.5701134    -1.0641573
C           5.9568811     1.1064666    -0.5788906
H           6.8694294     1.6535796    -0.8012146
C           4.7324941     1.5607953    -1.0733920
H           4.6914313     2.4561751    -1.6878759
C           0.0258983    -1.3621860    -0.4425226
H           0.3324120    -2.3367000    -0.8093257
C           3.5599483     0.8663647    -0.7802188
H           2.6109508     1.2191560    -1.1709461
C           3.6037460    -0.2986958    -0.0017804
C           4.8411445    -0.7602955     0.4724972
H           4.8627136    -1.6761424     1.0541013
C           6.0090639    -0.0551514     0.1971503
H           6.9614487    -0.4122819     0.5797082
O           2.5161762    -2.3282729     0.5222496
25
140_C13H10O2_0-7-8-19 (-30,) energy =    -651.8433393
C           0.6344808     0.6990167     0.5919868
O           1.5923513     1.4905510     1.1561167
H           1.1759593     2.3060537     1.4768842
C          -0.7029707     1.1151754     0.5504510
H          -0.9654598     2.0982330     0.9384819
C          -1.6891939     0.2802611     0.0343671
H          -2.7197357     0.6239727     0.0073394
C           0.9952188    -0.5752772     0.1041148
C           2.3857189    -1.1497531     0.0684920
C          -1.3548646    -0.9928987    -0.4338476
H          -2.1200426    -1.6530702    -0.8304790
C           5.9858494     1.1343950    -0.4608463
H           6.9089393     1.6894178    -0.6069983
C           4.7966284     1.5943715    -1.0305898
H           4.7942646     2.5011746    -1.6295735
C          -0.0282625    -1.4042259    -0.3875783
H           0.2601328    -2.3901030    -0.7369901
C           3.6095388     0.8915467    -0.8320361
H           2.6882150     1.2509198    -1.2791020
C           3.6042569    -0.2897255    -0.0774852
C           4.8087476    -0.7612325     0.4651373
H           4.7987090    -1.6938322     1.0199268
C           5.9892716    -0.0439424     0.2905152
H           6.9142596    -0.4073285     0.7301236
O           2.5217862    -2.3672016     0.1424314
25
140_C13H10O2_0-7-8-19 (-15,) energy =    -651.8412648
C           0.6296545     0.7211189     0.4845798
O           1.6007527     1.5747745     0.9181993
H           1.1803352     2.3880399     1.2397377
C          -0.7193571     1.0986947     0.5485448
H          -0.9721019     2.0945725     0.9095788
C          -1.7249291     0.2165217     0.1697769
H          -2.7631953     0.5326641     0.2245316
C           0.9845085    -0.5692567     0.0307586
C           2.3751669    -1.1207654    -0.1448548
C          -1.3966930    -1.0686162    -0.2700551
H          -2.1740888    -1.7671190    -0.5640018
C           6.0312417     1.1311326    -0.3375779
H           6.9701762     1.6750526    -0.4009860
C           4.8945863     1.6211173    -0.9843201
H           4.9494756     2.5401206    -1.5618992
C          -0.0604125    -1.4395720    -0.3338445
H           0.2263510    -2.4288556    -0.6737064
C           3.6858845     0.9334502    -0.8900913
H           2.8056367     1.3196436    -1.3936342
C           3.6071549    -0.2637766    -0.1659878
C           4.7619441    -0.7683322     0.4492146
H           4.7027067    -1.7160022     0.9748542
C           5.9616522    -0.0637544     0.3829434
H           6.8457278    -0.4524465     0.8811948
O           2.5164942    -2.3359651    -0.2491264
25
140_C13H10O2_0-7-8-19 (0,) energy =    -651.8388294
C           0.6091928     0.7564551    -0.1882633
O           1.5364041     1.7146089    -0.4712233
H           1.0748830     2.5405002    -0.6870520
C          -0.7561038     1.0771816    -0.2212072
H          -1.0513517     2.1008906    -0.4468940
C          -1.7228796     0.1097875     0.0238967
H          -2.7741360     0.3835192    -0.0057532
C           1.0222278    -0.5658182     0.0936938
C           2.4333449    -1.0843863     0.2104846
C          -1.3375607    -1.2044669     0.3025749
H          -2.0835953    -1.9696071     0.4940371
C           6.1165669     1.1027510    -0.1860433
H           7.0650551     1.6260331    -0.2752861
C           5.1353317     1.5767986     0.6870018
H           5.3227763     2.4627210     1.2880555
C           0.0133066    -1.5187244     0.3388505
H           0.3440498    -2.5273951     0.5603574
C           3.9113315     0.9173501     0.7903733
H           3.1515308     1.2953670     1.4659530
C           3.6650220    -0.2378937     0.0374228
C           4.6705723    -0.7308265    -0.8066858
H           4.4923613    -1.6502112    -1.3556025
C           5.8799750    -0.0512115    -0.9363475
H           6.6433362    -0.4301750    -1.6106238
O           2.6028181    -2.2881230     0.3821412
25
140_C13H10O2_0-7-8-19 (15,) energy =    -651.8412651
C           0.6252798     0.7324439    -0.3205202
O           1.5450857     1.6259446    -0.7846425
H           1.0928885     2.4582694    -0.9950828
C          -0.7232831     1.1014830    -0.2123579
H          -1.0132833     2.1203386    -0.4649855
C          -1.6826811     0.1831965     0.1989528
H          -2.7211628     0.4932702     0.2786708
C           1.0267131    -0.5863661    -0.0098836
C           2.4287425    -1.1367520    -0.0261496
C          -1.3090068    -1.1295164     0.4988591
H          -2.0506070    -1.8559473     0.8166324
C           6.0834218     1.1256196    -0.0430660
H           7.0235030     1.6712116    -0.0363166
C           5.0218078     1.5524275     0.7576688
H           5.1374147     2.4231012     1.3977768
C           0.0267963    -1.4922715     0.3923816
H           0.3485464    -2.5025729     0.6208369
C           3.8102890     0.8635718     0.7374823
H           2.9884900     1.2007390     1.3607778
C           3.6555197    -0.2730358    -0.0675215
C           4.7385274    -0.7166878    -0.8400604
H           4.6240445    -1.6201474    -1.4304388
C           5.9381446    -0.0088379    -0.8453357
H           6.7643514    -0.3487530    -1.4640161
O           2.5814121    -2.3549985    -0.0344220
25
140_C13H10O2_0-7-8-19 (30,) energy =    -651.8433394
C           0.6186202     0.7191805    -0.4293907
O           1.5111056     1.5612056    -1.0266823
H           1.0627670     2.3957770    -1.2359627
C          -0.7072312     1.1185590    -0.2141762
H          -1.0099647     2.1267377    -0.4930970
C          -1.6327390     0.2366067     0.3350530
H          -2.6548603     0.5678003     0.4977300
C           1.0297420    -0.5862934    -0.0849025
C           2.4167060    -1.1488452    -0.2418171
C          -1.2498949    -1.0664364     0.6628487
H          -1.9684055    -1.7627232     1.0842349
C           6.0512876     1.1187555     0.0844308
H           6.9843336     1.6687999     0.1759785
C           4.9288382     1.5215709     0.8112580
H           4.9894130     2.3781873     1.4773052
C           0.0646473    -1.4607917     0.4445304
H           0.3890973    -2.4684927     0.6822108
C           3.7278063     0.8259597     0.6838932
H           2.8588179     1.1405945     1.2528571
C           3.6433119    -0.2920461    -0.1573549
C           4.7838346    -0.7083396    -0.8598202
H           4.7155601    -1.5942797    -1.4827831
C           5.9758026     0.0035108    -0.7543564
H           6.8492285    -0.3156856    -1.3166292
O           2.5451021    -2.3553519    -0.4261903
25
140_C13H10O2_0-7-8-19 (45,) energy =    -651.8443415
C           0.5867641     0.7139101    -0.5198352
O           1.4402046     1.5214115    -1.2164999
H           0.9843002     2.3501454    -1.4318451
C          -0.7202066     1.1194516    -0.2231222
H          -1.0541629     2.1095922    -0.5293880
C          -1.5902749     0.2605698     0.4436699
H          -2.5997103     0.5934244     0.6695903
C           1.0339978    -0.5666584    -0.1386595
C           2.4017528    -1.1208150    -0.4362281
C          -1.1713218    -1.0215006     0.8062055
H          -1.8490430    -1.6989565     1.3165122
C           6.0362627     1.0775828     0.2040080
H           6.9672032     1.6131446     0.3714577
C           4.8711249     1.4808329     0.8597207
H           4.8954021     2.3243802     1.5444282
C           0.1247463    -1.4240212     0.4997250
H           0.4687522    -2.4218642     0.7529697
C           3.6742240     0.8016983     0.6378255
H           2.7719566     1.1143332     1.1534993
C           3.6353182    -0.2976380    -0.2312421
C           4.8155156    -0.7096452    -0.8687949
H           4.7752918    -1.5763867    -1.5204477
C           6.0059498    -0.0184974    -0.6631661
H           6.9124242    -0.3361167    -1.1714383
O           2.4986861    -2.2885487    -0.7973560
25
140_C13H10O2_0-7-8-19 (60,) energy =    -651.8440269
C           0.5293535     0.7173439    -0.6151001
O           1.3299678     1.4984820    -1.4016459
H           0.8516442     2.3098083    -1.6333756
C          -0.7625929     1.1116234    -0.2504448
H          -1.1451814     2.0738506    -0.5870255
C          -1.5578418     0.2714740     0.5268705
H          -2.5581240     0.5915370     0.8055959
C           1.0370913    -0.5240154    -0.1920014
C           2.3851100    -1.0512239    -0.6163494
C          -1.0776944    -0.9750717     0.9324942
H          -1.6989301    -1.6373021     1.5276750
C           6.0304128     1.0151233     0.3243898
H           6.9621768     1.5210653     0.5638580
C           4.8367044     1.4347722     0.9148411
H           4.8384466     2.2631925     1.6181121
C           0.2043054    -1.3676922     0.5540880
H           0.5865309    -2.3441998     0.8361753
C           3.6399182     0.7907475     0.6038139
H           2.7143408     1.1147221     1.0686801
C           3.6292821    -0.2862020    -0.2937078
C           4.8357411    -0.7092133    -0.8734272
H           4.8115142    -1.5523970    -1.5560496
C           6.0277935    -0.0580855    -0.5722173
H           6.9566713    -0.3863307    -1.0308707
O           2.4484582    -2.1502092    -1.1527232
25
140_C13H10O2_0-7-8-19 (75,) energy =    -651.8427494
C           0.4485168     0.7136239    -0.7221317
O           1.1751271     1.4671073    -1.6037885
H           0.6537450     2.2418183    -1.8654714
C          -0.8297367     1.0837081    -0.2932203
H          -1.2779616     2.0034219    -0.6655717
C          -1.5277164     0.2710686     0.5998366
H          -2.5199084     0.5686797     0.9278288
C           1.0397118    -0.4698286    -0.2514737
C           2.3726372    -0.9545880    -0.7782060
C          -0.9602588    -0.9172210     1.0610135
H          -1.5052469    -1.5566390     1.7487212
C           6.0312998     0.9210514     0.4561687
H           6.9651035     1.3832123     0.7658582
C           4.8221722     1.3592769     0.9995219
H           4.8132626     2.1604556     1.7335440
C           0.3106888    -1.2856382     0.6192378
H           0.7546184    -2.2203593     0.9503777
C           3.6235567     0.7681131     0.6014338
H           2.6841121     1.1052822     1.0279365
C           3.6269167    -0.2698657    -0.3409904
C           4.8476460    -0.7067519    -0.8799902
H           4.8304898    -1.5136457    -1.6054139
C           6.0421829    -0.1134493    -0.4854761
H           6.9835657    -0.4542946    -0.9079988
O           2.4069053    -1.9485587    -1.4893733
25
140_C13H10O2_0-7-8-19 (90,) energy =    -651.8415877
C           0.3489011     0.6920021    -0.8604695
O           0.9722934     1.3980486    -1.8529899
H           0.3851085     2.1076420    -2.1563446
C          -0.9161839     1.0314840    -0.3725688
H          -1.4456392     1.8842729    -0.7942620
C          -1.4957039     0.2760142     0.6471435
H          -2.4800616     0.5474881     1.0184969
C           1.0436114    -0.4040353    -0.3262388
C           2.3705657    -0.8390604    -0.9166585
C          -0.8177858    -0.8181751     1.1839396
H          -1.2675214    -1.4103815     1.9750798
C           6.0379048     0.8045146     0.5894915
H           6.9731548     1.2123677     0.9642190
C           4.8243648     1.2339778     1.1295940
H           4.8129962     1.9752323     1.9240137
C           0.4444103    -1.1530692     0.6893337
H           0.9753445    -2.0116779     1.0922451
C           3.6236815     0.7109790     0.6497132
H           2.6794020     1.0418638     1.0707023
C           3.6303270    -0.2465835    -0.3744738
C           4.8555783    -0.6723790    -0.9128121
H           4.8393826    -1.4130348    -1.7058240
C           6.0519530    -0.1502024    -0.4333459
H           6.9973102    -0.4832037    -0.8532191
O           2.3902121    -1.6937575    -1.7888382
25
140_C13H10O2_0-7-8-19 (105,) energy =    -651.8415008
C           0.2355833     0.6590369    -0.9991306
O           0.7345964     1.3078764    -2.0931854
H           0.0698091     1.9322807    -2.4225710
C          -1.0201038     0.9526098    -0.4590022
H          -1.6405337     1.7160130    -0.9255814
C          -1.4731183     0.2707733     0.6705855
H          -2.4526045     0.5054052     1.0781923
C           1.0478111    -0.3209008    -0.4051594
C           2.3746503    -0.6979903    -1.0300550
C          -0.6738377    -0.6998836     1.2736117
H          -1.0222283    -1.2323242     2.1533928
C           6.0537073     0.6677594     0.7142867
H           6.9920326     1.0077312     1.1448614
C           4.8416394     1.0928856     1.2606025
H           4.8341876     1.7646220     2.1146656
C           0.5829046    -0.9827732     0.7345883
H           1.2130727    -1.7381220     1.1974497
C           3.6364996     0.6563039     0.7098932
H           2.6941641     0.9885758     1.1334923
C           3.6370244    -0.2087850    -0.3940390
C           4.8616620    -0.6284542    -0.9394134
H           4.8411598    -1.2940229    -1.7962932
C           6.0620307    -0.1942756    -0.3878995
H           7.0061392    -0.5236258    -0.8134439
O           2.3964673    -1.3990625    -2.0297662
25
140_C13H10O2_0-7-8-19 (120,) energy =    -651.8421359
C           0.1234639     0.6388212    -1.0965689
O           0.5017550     1.2518532    -2.2544775
H          -0.2363220     1.7883477    -2.5828733
C          -1.1314395     0.8515082    -0.5161203
H          -1.8435863     1.5134555    -1.0061626
C          -1.4690265     0.2207102     0.6807716
H          -2.4503525     0.3913295     1.1150273
C           1.0557908    -0.2075443    -0.4682307
C           2.3814126    -0.5147543    -1.1224348
C          -0.5528260    -0.6161498     1.3174732
H          -0.8109273    -1.1086828     2.2499719
C           6.0768095     0.5244225     0.8129881
H           7.0197137     0.7832186     1.2877379
C           4.8761469     1.0053181     1.3374464
H           4.8822299     1.6426280     2.2175350
C           0.7038509    -0.8128718     0.7433968
H           1.4261470    -1.4611120     1.2328180
C           3.6648185     0.6705887     0.7312198
H           2.7333904     1.0516020     1.1370700
C           3.6468764    -0.1455311    -0.4096059
C           4.8612285    -0.6171109    -0.9352685
H           4.8287353    -1.2386463    -1.8242341
C           6.0672298    -0.2881148    -0.3259431
H           7.0021287    -0.6607278    -0.7358534
O           2.4111838    -1.0638400    -2.2135596
25
140_C13H10O2_0-7-8-19 (135,) energy =    -651.8425753
C           0.0434937     0.6243162    -1.1707065
O           0.3173154     1.2059049    -2.3703758
H          -0.4797377     1.6582243    -2.6880710
C          -1.2145413     0.7374651    -0.5680916
H          -2.0030175     1.2879686    -1.0788000
C          -1.4602142     0.1497416     0.6715058
H          -2.4460402     0.2418453     1.1192239
C           1.0792099    -0.0732601    -0.5140338
C           2.4075004    -0.3014432    -1.1845981
C          -0.4481120    -0.5468582     1.3319775
H          -0.6345688    -1.0101888     2.2959354
C           6.1040693     0.3758596     0.9113768
H           7.0476198     0.5446032     1.4238366
C           4.9299271     0.9470144     1.4043631
H           4.9581015     1.5674898     2.2960147
C           0.8100545    -0.6422778     0.7384736
H           1.6030715    -1.1866446     1.2432397
C           3.7166808     0.7255084     0.7515815
H           2.8077788     1.1799647     1.1323676
C           3.6700784    -0.0645939    -0.4068302
C           4.8598919    -0.6209712    -0.9040139
H           4.8095645    -1.2142270    -1.8112995
C           6.0668185    -0.4093450    -0.2456414
H           6.9809617    -0.8514543    -0.6327126
O           2.4578839    -0.6997665    -2.3393731
25
140_C13H10O2_0-7-8-19 (150,) energy =    -651.8420940
C          -0.0335350     0.6048741    -1.2213498
O           0.1470377     1.1541471    -2.4508780
H          -0.7020227     1.5070721    -2.7607112
C          -1.2909724     0.6044908    -0.6051551
H          -2.1412496     1.0334032    -1.1331491
C          -1.4600284     0.0578377     0.6645486
H          -2.4466372     0.0604242     1.1200433
C           1.0865512     0.0696288    -0.5423403
C           2.4188018    -0.0656092    -1.2224300
C          -0.3706114    -0.4890051     1.3429358
H          -0.4962072    -0.9266087     2.3284756
C           6.1155063     0.2290837     0.9680103
H           7.0598210     0.3035726     1.5009800
C           4.9894573     0.9022162     1.4443327
H           5.0567678     1.5104254     2.3423676
C           0.8837682    -0.4732500     0.7370784
H           1.7306369    -0.9138630     1.2531990
C           3.7742384     0.7990437     0.7661495
H           2.9044926     1.3342700     1.1342368
C           3.6775337     0.0291309    -0.4028434
C           4.8219846    -0.6240874    -0.8865683
H           4.7402255    -1.1936557    -1.8067008
C           6.0290711    -0.5351886    -0.1998552
H           6.9060143    -1.0555189    -0.5755901
O           2.4936208    -0.3040312    -2.4198284
25
140_C13H10O2_0-7-8-19 (165,) energy =    -651.8404269
C          -0.0838249     0.5731109    -1.2689027
O           0.0286728     1.0680121    -2.5272633
H          -0.8573580     1.3090541    -2.8423889
C          -1.3392759     0.4609539    -0.6564880
H          -2.2264518     0.7589213    -1.2133024
C          -1.4607462    -0.0300122     0.6396370
H          -2.4463330    -0.1141083     1.0895746
C           1.0880673     0.2102797    -0.5561935
C           2.4307563     0.1857948    -1.2234162
C          -0.3233295    -0.4166254     1.3492644
H          -0.4079570    -0.8169433     2.3548018
C           6.1182114     0.0775427     1.0069043
H           7.0611968     0.0529559     1.5467268
C           5.0569922     0.8457794     1.4882354
H           5.1748586     1.4308675     2.3964097
C           0.9253903    -0.2960733     0.7466537
H           1.8049922    -0.6270069     1.2868523
C           3.8419878     0.8681202     0.8019200
H           3.0239377     1.4778645     1.1740343
C           3.6814415     0.1317317    -0.3814526
C           4.7644725    -0.6123717    -0.8731530
H           4.6425385    -1.1496872    -1.8082223
C           5.9689053    -0.6524059    -0.1759120