22
076_C10H8N2OS_18-0-2-9 (-165,) energy =    -968.8074786
N           1.8317244    -1.2437921    -0.8720897
H           1.9443652    -0.4003455    -1.4193515
C           2.6783485    -1.5092736     0.1860204
C           5.5770406     1.4557644     1.3075928
H           6.3199823     2.1910620     1.6041999
C           5.7222060     0.1196107     1.6899947
H           6.5786644    -0.1873832     2.2836445
C           4.7682415    -0.8212744     1.3127797
H           4.8568775    -1.8616105     1.6073741
C           3.6627196    -0.4392603     0.5391040
C           3.5173374     0.9055201     0.1673182
H           2.6460054     1.2405358    -0.3893348
C           4.4709658     1.8475959     0.5514573
H           4.3447310     2.8882710     0.2667209
O           2.5994910    -2.5646968     0.8069005
C          -1.2107147    -2.3847374    -2.2126259
H          -1.9856751    -2.1560122    -2.9353808
N          -0.1460570    -1.5184832    -2.0911472
C           0.6755383    -1.9496053    -1.1738116
S           0.2307807    -3.4557472    -0.3901212
C          -1.1964825    -3.4730947    -1.3947153
H          -1.9234336    -4.2694748    -1.3158446
22
076_C10H8N2OS_18-0-2-9 (-150,) energy =    -968.8047936
N           1.9979743    -1.4219074    -1.0367181
H           2.1082145    -0.5712221    -1.5749080
C           2.8113452    -1.6393404     0.0644045
C           5.4412814     1.4955102     1.3706513
H           6.1138377     2.2753433     1.7172835
C           5.6527293     0.1677606     1.7522304
H           6.4904847    -0.0878315     2.3948954
C           4.7887516    -0.8299620     1.3107479
H           4.9291757    -1.8650624     1.6038068
C           3.7077501    -0.5137786     0.4744094
C           3.4963530     0.8219343     0.1019308
H           2.6402558     1.1034580    -0.5053603
C           4.3596357     1.8211386     0.5507312
H           4.1816179     2.8541489     0.2658087
O           2.7441349    -2.6883277     0.6950187
C          -1.2466643    -2.2685386    -2.1009151
H          -2.0560691    -1.9687771    -2.7568468
N          -0.0977899    -1.5070726    -2.0803339
C           0.7524214    -2.0090845    -1.2286383
S           0.2374206    -3.4654017    -0.3953115
C          -1.2659756    -3.3506171    -1.2750626
H          -2.0579097    -4.0702841    -1.1210655
22
076_C10H8N2OS_18-0-2-9 (-135,) energy =    -968.8005108
N           2.1637464    -1.5939678    -1.1898744
H           2.2959292    -0.7468659    -1.7309353
C           2.9580849    -1.7663474    -0.0556147
C           5.2794727     1.5344650     1.4135095
H           5.8711459     2.3579370     1.8039977
C           5.5696190     0.2210451     1.7940348
H           6.3881810     0.0208618     2.4796220
C           4.8087935    -0.8322012     1.2962631
H           5.0103135    -1.8577943     1.5872545
C           3.7533994    -0.5860003     0.4047411
C           3.4632614     0.7347539     0.0317254
H           2.6231600     0.9585667    -0.6198778
C           4.2231679     1.7893220     0.5377057
H           3.9839986     2.8099426     0.2529944
O           2.9192158    -2.8139300     0.5754177
C          -1.2279167    -2.0952743    -2.0008780
H          -2.0509116    -1.7120287    -2.5933530
N          -0.0087367    -1.4540003    -2.0713687
C           0.8477504    -2.0410339    -1.2842537
S           0.2531319    -3.4427291    -0.4103231
C          -1.2951940    -3.1716010    -1.1705440
H          -2.1429518    -3.8049798    -0.9496573
22
076_C10H8N2OS_18-0-2-9 (-120,) energy =    -968.7950992
N           2.3223619    -1.7899299    -1.3081585
H           2.4905198    -0.9522310    -1.8566255
C           3.1093402    -1.9150336    -0.1468530
C           5.0922355     1.5468063     1.4373626
H           5.5968468     2.4123316     1.8579867
C           5.4775222     0.2583061     1.8198364
H           6.2821245     0.1203529     2.5365743
C           4.8288801    -0.8493734     1.2837862
H           5.1045507    -1.8574902     1.5753701
C           3.7923327    -0.6820834     0.3520373
C           3.4070775     0.6134347    -0.0241341
H           2.5778822     0.7705467    -0.7082459
C           4.0539490     1.7223476     0.5214487
H           3.7413355     2.7224224     0.2351004
O           3.1233835    -2.9650816     0.4752239
C          -1.1564803    -1.9042007    -1.8870401
H          -1.9714646    -1.4269139    -2.4191975
N           0.1175929    -1.3944501    -2.0351070
C           0.9571766    -2.0802365    -1.3134963
S           0.2739301    -3.4229964    -0.4105356
C          -1.2848112    -2.9767864    -1.0596400
H          -2.1794801    -3.5161384    -0.7818397
22
076_C10H8N2OS_18-0-2-9 (-105,) energy =    -968.7893503
N           2.4730272    -1.9904341    -1.4056232
H           2.6798911    -1.1796342    -1.9834016
C           3.2681511    -2.0662248    -0.2255869
C           4.8827266     1.5420618     1.4420117
H           5.2931627     2.4465651     1.8826954
C           5.3760402     0.2910692     1.8261132
H           6.1704072     0.2219637     2.5639022
C           4.8477596    -0.8665346     1.2645927
H           5.2077520    -1.8476586     1.5564852
C           3.8259084    -0.7856577     0.3049262
C           3.3324550     0.4721299    -0.0748151
H           2.5132144     0.5557985    -0.7831340
C           3.8582791     1.6301133     0.4983771
H           3.4630577     2.6000827     0.2105869
O           3.3708075    -3.1212607     0.3721920
C          -1.0298277    -1.7002643    -1.7731944
H          -1.8172236    -1.1273148    -2.2495882
N           0.2823270    -1.3278729    -1.9879488
C           1.0832236    -2.1166818    -1.3306486
S           0.3073612    -3.3943959    -0.4067588
C          -1.2285509    -2.7669616    -0.9524106
H          -2.1595709    -3.2087258    -0.6262056
22
076_C10H8N2OS_18-0-2-9 (-90,) energy =    -968.7875515
N           2.5042784    -1.6844893    -1.6987749
H           2.7175546    -2.3214639    -2.4680231
C           3.4995447    -1.9131663    -0.6719896
C           4.6473245     1.4148415     1.7573524
H           4.9541084     2.2537390     2.3763337
C           5.0886039     0.1232483     2.0653022
H           5.7356317    -0.0411748     2.9222557
C           4.6992308    -0.9509731     1.2730778
H           5.0338510    -1.9602424     1.4895017
C           3.8607704    -0.7419797     0.1654857
C           3.4222541     0.5553734    -0.1408619
H           2.7944656     0.7158398    -1.0107567
C           3.8179224     1.6297188     0.6550305
H           3.4831558     2.6339801     0.4116392
O           4.0943673    -2.9717096    -0.6344251
C          -0.9476232    -2.4691505    -1.7674771
H          -1.7194114    -2.9638329    -2.3462768
N           0.3483309    -2.4912773    -2.2403920
C           1.1415676    -1.8611608    -1.4240538
S           0.3567331    -1.1752957     0.0020378
C          -1.1536148    -1.8292498    -0.5859494
H          -2.0689063    -1.7079682    -0.0242835
22
076_C10H8N2OS_18-0-2-9 (-75,) energy =    -968.7910976
N           2.5559658    -1.7982823    -1.7309401
H           2.7161780    -2.4711673    -2.4805870
C           3.6148171    -1.9318895    -0.7794135
C           4.5112108     1.3772565     1.7826931
H           4.7591601     2.2124002     2.4323173
C           4.9764561     0.0938960     2.0881199
H           5.5838025    -0.0686047     2.9739972
C           4.6651996    -0.9748660     1.2541301
H           5.0278401    -1.9757804     1.4644590
C           3.8731198    -0.7704060     0.1132227
C           3.4120317     0.5190013    -0.1918735
H           2.8261210     0.6812808    -1.0905517
C           3.7352303     1.5892554     0.6417108
H           3.3856473     2.5882223     0.3972750
O           4.3473566    -2.9025408    -0.8316315
C          -0.9347151    -2.3525626    -1.6830506
H          -1.7505041    -2.8016061    -2.2381735
N           0.3423490    -2.4464101    -2.1948343
C           1.1955653    -1.8611880    -1.4044932
S           0.4949535    -1.1354577     0.0440527
C          -1.0673319    -1.7014025    -0.4973483
H          -1.9570423    -1.5212201     0.0891594
22
076_C10H8N2OS_18-0-2-9 (-60,) energy =    -968.7934969
N           2.5852780    -1.9244323    -1.7213777
H           2.7136945    -2.6134630    -2.4603179
C           3.7033051    -1.9391507    -0.8554858
C           4.4156559     1.3582833     1.7818532
H           4.6212748     2.1915541     2.4483908
C           4.9014918     0.0832660     2.0886821
H           5.4831165    -0.0752466     2.9923747
C           4.6473680    -0.9826129     1.2311380
H           5.0342259    -1.9747663     1.4401028
C           3.8840895    -0.7856608     0.0703716
C           3.4036769     0.4957857    -0.2369349
H           2.8431084     0.6560980    -1.1523386
C           3.6751525     1.5647743     0.6166144
H           3.3121045     2.5582114     0.3691742
O           4.5412980    -2.8161169    -0.9805672
C          -0.9260885    -2.2486228    -1.6271952
H          -1.7744451    -2.6332948    -2.1818468
N           0.3348151    -2.3961130    -2.1633272
C           1.2328975    -1.8800028    -1.3725973
S           0.5963711    -1.1633397     0.1089398
C          -1.0031044    -1.6250632    -0.4218695
H          -1.8727099    -1.4019665     0.1799000
22
076_C10H8N2OS_18-0-2-9 (-45,) energy =    -968.7947073
N           2.5876778    -2.0487501    -1.6743075
H           2.6962036    -2.7390266    -2.4132583
C           3.7521063    -1.9457646    -0.8988771
C           4.3526111     1.3435514     1.7795069
H           4.5325452     2.1759331     2.4545304
C           4.8631190     0.0772357     2.0804871
H           5.4394607    -0.0758802     2.9884863
C           4.6433685    -0.9867242     1.2102652
H           5.0553201    -1.9700662     1.4131786
C           3.8843526    -0.7982000     0.0460611
C           3.3801764     0.4750802    -0.2562639
H           2.8228358     0.6322830    -1.1744825
C           3.6209490     1.5431379     0.6074437
H           3.2398257     2.5306152     0.3632506
O           4.6602866    -2.7401840    -1.0860747
C          -0.9324941    -2.1179684    -1.5999213
H          -1.8030823    -2.4080086    -2.1772001
N           0.3163641    -2.3073069    -2.1488863
C           1.2453961    -1.8975836    -1.3306989
S           0.6532704    -1.2469995     0.1992167
C          -0.9707928    -1.5693587    -0.3565505
H          -1.8256881    -1.3169113     0.2547007
22
076_C10H8N2OS_18-0-2-9 (-30,) energy =    -968.7949733
N           2.5781993    -2.1634019    -1.6062526
H           2.6794544    -2.8431786    -2.3544706
C           3.7756567    -1.9431028    -0.9237836
C           4.2899424     1.3478126     1.7737152
H           4.4497429     2.1812283     2.4525080
C           4.8383719     0.0953363     2.0640252
H           5.4249550    -0.0465546     2.9673035
C           4.6454271    -0.9695033     1.1878376
H           5.0905170    -1.9401886     1.3817752
C           3.8722591    -0.7974772     0.0309434
C           3.3306750     0.4625100    -0.2611058
H           2.7611912     0.6099976    -1.1736854
C           3.5466055     1.5326108     0.6065151
H           3.1362203     2.5101266     0.3696570
O           4.7337410    -2.6617815    -1.1666137
C          -0.9364387    -1.9956832    -1.6046145
H          -1.8117876    -2.1899907    -2.2139165
N           0.3087531    -2.2197284    -2.1474483
C           1.2455334    -1.9189141    -1.2909169
S           0.6626300    -1.3471929     0.2743459
C          -0.9653409    -1.5297219    -0.3270872
H          -1.8152918    -1.2555269     0.2818043
22
076_C10H8N2OS_18-0-2-9 (-15,) energy =    -968.7945209
N           2.5912318    -2.2955594    -1.5133051
H           2.6935717    -2.9667296    -2.2685874
C           3.8092268    -1.9607004    -0.9266360
C           4.2560750     1.3431575     1.7700542
H           4.3994017     2.1797129     2.4486283
C           4.8482193     0.1084644     2.0491909
H           5.4531559    -0.0166135     2.9428375
C           4.6770081    -0.9604735     1.1730119
H           5.1578596    -1.9158240     1.3578169
C           3.8805448    -0.8119629     0.0290759
C           3.2956180     0.4306976    -0.2519999
H           2.7068667     0.5622716    -1.1549031
C           3.4903918     1.5061501     0.6140886
H           3.0455785     2.4704160     0.3850430
O           4.8007474    -2.6130286    -1.2191344
C          -0.9045621    -1.9124045    -1.6313933
H          -1.7674634    -2.0246804    -2.2778893
N           0.3445200    -2.1755117    -2.1461799
C           1.2664546    -1.9681544    -1.2469570
S           0.6597923    -1.4535784     0.3296884
C          -0.9518428    -1.5097653    -0.3321742
H          -1.8061843    -1.2113539     0.2590629
22
076_C10H8N2OS_18-0-2-9 (0,) energy =    -968.7934664
N           0.9314680    -1.4482806     1.0114432
H           0.0975786    -1.5936158     1.5730048
C           1.9749548    -0.9027087     1.7572051
C           5.5533717     0.6672233    -0.0142420
H           6.4669665     1.0766880    -0.4367676
C           5.6186339    -0.2339345     1.0517300
H           6.5817481    -0.5252012     1.4613904
C           4.4472583    -0.7478882     1.6028600
H           4.4817861    -1.4214267     2.4533090
C           3.2017843    -0.3936290     1.0659522
C           3.1399940     0.5180090     0.0031821
H           2.1779889     0.8264900    -0.3951405
C           4.3138742     1.0510763    -0.5289313
H           4.2592449     1.7667114    -1.3444203
O           1.8747543    -0.8849619     2.9750025
C          -0.4722814    -2.0199066    -2.1676907
H          -1.4056742    -2.0209722    -2.7189459
N          -0.4837120    -1.6305729    -0.8475399
C           0.7205716    -1.6605353    -0.3476343
S           1.9712723    -2.2120270    -1.4654211
C           0.7392851    -2.3609241    -2.6872282
H           0.9897277    -2.6475204    -3.6990518
22
076_C10H8N2OS_18-0-2-9 (15,) energy =    -968.7945213
N           0.8739570    -1.3143147     0.9506892
H           0.0416977    -1.4707117     1.5112638
C           1.9670529    -0.9120422     1.7146801
C           5.5563469     0.6690289    -0.0190828
H           6.4730307     1.0821442    -0.4312532
C           5.6160869    -0.2755685     1.0090596
H           6.5778531    -0.5972729     1.3985398
C           4.4412644    -0.7946586     1.5476549
H           4.4700412    -1.5032014     2.3693404
C           3.1976472    -0.3998812     1.0352823
C           3.1416458     0.5547609     0.0101090
H           2.1806228     0.8916588    -0.3667817
C           4.3192696     1.0916547    -0.5090895
H           4.2701036     1.8405844    -1.2944543
O           1.8880647    -0.9772894     2.9326910
C          -0.4762726    -2.1131567    -2.1988440
H          -1.4076335    -2.1919612    -2.7479610
N          -0.5133408    -1.6717461    -0.8955992
C           0.6897460    -1.6129593    -0.3945834
S           1.9739960    -2.1282879    -1.4915363
C           0.7529374    -2.4048150    -2.7047671
H           1.0226708    -2.7221857    -3.7022700
22
076_C10H8N2OS_18-0-2-9 (30,) energy =    -968.7949733
N           0.8514697    -1.1506022     0.9313968
H           0.0258298    -1.3201477     1.4986289
C           1.9835176    -0.8921923     1.7059236
C           5.5869964     0.6987890     0.0162983
H           6.5075692     1.1136053    -0.3853868
C           5.6382035    -0.2779942     1.0148092
H           6.5971866    -0.6231521     1.3907635
C           4.4588312    -0.8000608     1.5395402
H           4.4798750    -1.5357805     2.3371743
C           3.2187000    -0.3732230     1.0438896
C           3.1712053     0.6127980     0.0480578
H           2.2128901     0.9726080    -0.3139295
C           4.3540974     1.1508623    -0.4576703
H           4.3123246     1.9239326    -1.2196889
O           1.9174169    -1.0454134     2.9165206
C          -0.4849611    -2.1869512    -2.1541735
H          -1.4180535    -2.3510830    -2.6810884
N          -0.5303003    -1.6991698    -0.8675574
C           0.6741066    -1.5438426    -0.3911437
S           1.9725975    -2.0076419    -1.4936412
C           0.7517676    -2.4169494    -2.6715076
H           1.0269692    -2.7629743    -3.6578539
22
076_C10H8N2OS_18-0-2-9 (45,) energy =    -968.7947073
N           0.8349233    -1.0217565     0.8998896
H           0.0166217    -1.2018142     1.4763176
C           1.9946222    -0.9139361     1.6817246
C           5.6153884     0.7134876     0.0706727
H           6.5403734     1.1359480    -0.3125012
C           5.6561114    -0.2922759     1.0410045
H           6.6113588    -0.6522459     1.4124887
C           4.4715102    -0.8253705     1.5411214
H           4.4829078    -1.5867106     2.3144715
C           3.2361964    -0.3768876     1.0513473
C           3.1991377     0.6373105     0.0834295
H           2.2440265     1.0117648    -0.2715535
C           4.3878525     1.1838311    -0.3992518
H           4.3547015     1.9782550    -1.1393788
O           1.9312875    -1.1718505     2.8735321
C          -0.5198708    -2.2877435    -2.0940617
H          -1.4553581    -2.5435612    -2.5785393
N          -0.5575158    -1.7674971    -0.8193910
C           0.6470546    -1.5077451    -0.3928434
S           1.9377460    -1.8935678    -1.5329187
C           0.7112602    -2.4372923    -2.6511629
H           0.9793235    -2.8038471    -3.6319705
22
076_C10H8N2OS_18-0-2-9 (60,) energy =    -968.7934969
N           0.8348408    -0.8988584     0.8491806
H           0.0248474    -1.0712684     1.4420310
C           2.0146197    -0.9452301     1.6276031
C           5.6472677     0.7454589     0.1171395
H           6.5754636     1.1812083    -0.2426740
C           5.6803374    -0.2783960     1.0692298
H           6.6322043    -0.6389847     1.4487011
C           4.4923294    -0.8304930     1.5381471
H           4.4960423    -1.6102502     2.2929040
C           3.2610594    -0.3781671     1.0400131
C           3.2318594     0.6529744     0.0896278
H           2.2789090     1.0275670    -0.2701864
C           4.4243563     1.2152801    -0.3650642
H           4.3975638     2.0221308    -1.0918526
O           1.9493099    -1.3232197     2.7851026
C          -0.5839520    -2.3795177    -2.0210701
H          -1.5225914    -2.7158744    -2.4466752
N          -0.5919743    -1.8271058    -0.7585942
C           0.6120481    -1.4778457    -0.4028947
S           1.8655960    -1.8017314    -1.6018277
C           0.6240742    -2.4628492    -2.6385614
H           0.8684664    -2.8538250    -3.6160694
22
076_C10H8N2OS_18-0-2-9 (75,) energy =    -968.7910976
N           0.8568115    -0.8010883     0.7665838
H           0.0556039    -0.9446655     1.3812904
C           2.0470805    -1.0046124     1.5322584
C           5.6921528     0.7924479     0.1897320
H           6.6232685     1.2518091    -0.1311514
C           5.7130969    -0.2444308     1.1284526
H           6.6585867    -0.5913107     1.5356107
C           4.5216525    -0.8290281     1.5448389
H           4.5140322    -1.6246624     2.2827302
C           3.2984541    -0.3895254     1.0142859
C           3.2814437     0.6535248     0.0761954
H           2.3334182     1.0133976    -0.3097933
C           4.4777695     1.2435160    -0.3305949
H           4.4607177     2.0579616    -1.0491209
O           1.9713254    -1.5285993     2.6282526
C          -0.6696216    -2.4410275    -1.9674561
H          -1.6170721    -2.8188805    -2.3347128
N          -0.6326233    -1.8508574    -0.7216820
C           0.5761682    -1.4599271    -0.4369049
S           1.7790643    -1.7822692    -1.6878898
C           0.5087008    -2.5111330    -2.6413460
H           0.7178422    -2.9366937    -3.6125304
22
076_C10H8N2OS_18-0-2-9 (90,) energy =    -968.7875515
N           0.9015473    -0.7405013     0.6617810
H           0.1164857    -0.8278154     1.3090990
C           2.0995619    -1.0783113     1.4019039
C           5.7368669     0.8804809     0.2938073
H           6.6663134     1.3769522     0.0280099
C           5.7477423    -0.1723053     1.2153798
H           6.6835611    -0.4939105     1.6635562
C           4.5592813    -0.8070714     1.5586206
H           4.5430030    -1.6217465     2.2751913
C           3.3477232    -0.3950108     0.9791495
C           3.3412224     0.6626489     0.0568788
H           2.4006399     0.9935286    -0.3702131
C           4.5353610     1.2978909    -0.2818187
H           4.5268319     2.1211127    -0.9903958
O           2.0169751    -1.7622841     2.4024534
C          -0.7856427    -2.5008533    -1.9054329
H          -1.7510379    -2.8901687    -2.2084550
N          -0.6841212    -1.8640755    -0.6856613
C           0.5380205    -1.4687146    -0.4789287
S           1.6750978    -1.8411636    -1.7783325
C           0.3562874    -2.6026766    -2.6358713
H           0.5145093    -3.0732040    -3.5958224
22
076_C10H8N2OS_18-0-2-9 (105,) energy =    -968.7893503
N           1.0388311    -1.1387612     0.7169179
H           0.8946399    -0.1355667     0.6342854
C           2.3393477    -1.4905370     1.1809841
C           5.6023157     1.2113106     0.5023750
H           6.4419247     1.8798327     0.3323154
C           5.7124704     0.1731972     1.4329987
H           6.6362381     0.0346465     1.9876010
C           4.6388560    -0.6845588     1.6475610
H           4.7065743    -1.5033015     2.3564153
C           3.4388189    -0.5079041     0.9401825
C           3.3345946     0.5336628     0.0053007
H           2.4310233     0.6619387    -0.5837451
C           4.4173524     1.3854216    -0.2140327
H           4.3354834     2.1813715    -0.9486242
O           2.5424767    -2.5993946     1.6394090
C          -0.5684562    -1.8974726    -2.3376352
H          -1.0987440    -1.4679968    -3.1799889
N          -0.1087998    -1.0544405    -1.3453878
C           0.5102436    -1.7408581    -0.4281551
S           0.5705305    -3.4781580    -0.6855329
C          -0.2977721    -3.2213281    -2.1790258
H          -0.5338811    -4.0463046    -2.8363156
22
076_C10H8N2OS_18-0-2-9 (120,) energy =    -968.7950993
N           1.1290447    -1.0714019     0.4727151
H           1.0035687    -0.0729545     0.3379292
C           2.3941420    -1.4573593     0.9566960
C           5.6828445     1.2874894     0.6804661
H           6.5295644     1.9652080     0.6137137
C           5.7363480     0.1834823     1.5367723
H           6.6232978     0.0021956     2.1372551
C           4.6534775    -0.6857986     1.6192322
H           4.6785015    -1.5545743     2.2687879
C           3.5002421    -0.4567746     0.8523146
C           3.4544489     0.6499958    -0.0086517
H           2.5921425     0.8234704    -0.6462980
C           4.5452031     1.5151801    -0.0952064
H           4.5072894     2.3625622    -0.7737166
O           2.5848096    -2.6030988     1.3317895
C          -0.7834605    -2.0525072    -2.3254043
H          -1.4037824    -1.6840177    -3.1344844
N          -0.2359036    -1.1415234    -1.4448805
C           0.4872122    -1.7614444    -0.5567824
S           0.5439539    -3.5111774    -0.6995022
C          -0.4819215    -3.3609294    -2.1048802
H          -0.7777449    -4.2306368    -2.6746213
22
076_C10H8N2OS_18-0-2-9 (135,) energy =    -968.8005117
N           1.2351662    -1.0251744     0.2266951
H           1.1099526    -0.0342202     0.0529924
C           2.4644485    -1.4352447     0.7444273
C           5.7371066     1.3433261     0.8575096
H           6.5790348     2.0293639     0.8916573
C           5.7436695     0.1870398     1.6429782
H           6.5893833    -0.0275636     2.2901798
C           4.6666269    -0.6924983     1.5955773
H           4.6567761    -1.6006983     2.1890635
C           3.5653997    -0.4228116     0.7684954
C           3.5678455     0.7360301    -0.0219401
H           2.7506224     0.9468426    -0.7062625
C           4.6519023     1.6125854     0.0222233
H           4.6507080     2.5014275    -0.6021707
O           2.6418269    -2.6007666     1.0720257
C          -0.9696302    -2.1860982    -2.2642803
H          -1.6750592    -1.8692272    -3.0240021
N          -0.3335540    -1.2218174    -1.5105345
C           0.4843366    -1.7854195    -0.6672059
S           0.5302232    -3.5401804    -0.6971712
C          -0.6439229    -3.4783879    -1.9879846
H          -1.0014080    -4.3829299    -2.4598573
22
076_C10H8N2OS_18-0-2-9 (150,) energy =    -968.8047941
N           1.3543141    -1.0064594    -0.0370561
H           1.2188291    -0.0215622    -0.2294069
C           2.5473864    -1.4308634     0.5269247
C           5.7473393     1.3923594     1.0169724
H           6.5691218     2.0907248     1.1496443
C           5.7180044     0.1984264     1.7428470
H           6.5160892    -0.0334337     2.4424629
C           4.6667439    -0.6969092     1.5693552
H           4.6301339    -1.6337684     2.1152423
C           3.6265734    -0.4051499     0.6744232
C           3.6662268     0.7909466    -0.0572843
H           2.9001493     1.0218411    -0.7926377
C           4.7240032     1.6836829     0.1135906
H           4.7516308     2.6024308    -0.4652951
O           2.7130745    -2.6067030     0.8309803
C          -1.1229609    -2.2818613    -2.1855425
H          -1.9062737    -1.9993381    -2.8796949
N          -0.3985766    -1.2854462    -1.5669208
C           0.5018301    -1.8114379    -0.7840413
S           0.5299563    -3.5649705    -0.7140381
C          -0.7807590    -3.5603990    -1.8670771
H          -1.2007331    -4.4854634    -2.2367622
22
076_C10H8N2OS_18-0-2-9 (165,) energy =    -968.8074787
N           1.4877461    -1.0124294    -0.3075346
H           1.3404147    -0.0293176    -0.4960474
C           2.6414129    -1.4414506     0.3181612
C           5.7240372     1.4289203     1.1620261
H           6.5136481     2.1404198     1.3876347
C           5.6680131     0.2065304     1.8367259
H           6.4132602    -0.0348176     2.5894108
C           4.6581921    -0.7058989     1.5444476
H           4.6023294    -1.6644277     2.0494646
C           3.6852698    -0.4023014     0.5811508
C           3.7530406     0.8221212    -0.0999691
H           3.0427771     1.0642933    -0.8862236
C           4.7691363     1.7320449     0.1899689
H           4.8186734     2.6735379    -0.3496082
O           2.7947898    -2.6215409     0.6172798
C          -1.2387259    -2.3348658    -2.0892171
H          -2.0897242    -2.0682513    -2.7056361
N          -0.4297022    -1.3272908    -1.6107783
C           0.5399782    -1.8348750    -0.9004562
S           0.5422420    -3.5826664    -0.7411103
C          -0.8889706    -3.6034856    -1.7400277
H          -1.3704863    -4.5348126    -2.0039680
22
076_C10H8N2OS_18-0-2-9 (180,) energy =    -968.8083688
N           1.6501984    -1.0912386    -0.6801370
H           1.7812090    -0.2657263    -1.2500784
C           2.5398239    -1.3977220     0.3286799
C           5.6735170     1.4021013     1.2179858
H           6.4778393     2.0941031     1.4520463
C           5.7669551     0.0627167     1.6045533
H           6.6443503    -0.2902713     2.1391302
C           4.7345660    -0.8229502     1.3078990
H           4.7827202    -1.8644806     1.6074691
C           3.6019012    -0.3818799     0.6090857
C           3.5085014     0.9667089     0.2340513
H           2.6203744     1.3483580    -0.2631046
C           4.5405299     1.8534355     0.5384079
H           4.4553177     2.8976969     0.2515613
O           2.4576370    -2.4565644     0.9438491
C          -1.1416476    -2.4668425    -2.3121883
H          -1.8586711    -2.2957573    -3.1070914
N          -0.1700471    -1.5169896    -2.0848600
C           0.5963748    -1.8916422    -1.0971486
S           0.2022560    -3.4358711    -0.3622976
C          -1.1156726    -3.5592397    -1.4998096
H          -1.7741001    -4.4168006    -1.4984906
