22
076_C10H8N2OS_0-2-9-10 (-165,) energy =    -968.8083373
N           1.9590660    -1.5797463    -0.5757551
H           2.8129571    -2.0747375    -0.7968519
C           1.9857289    -0.4278582     0.1822002
C           5.7837867     1.2233342     1.3270886
H           6.7337549     1.6537900     1.6317912
C           5.7433563     0.2803312     0.2983667
H           6.6582165    -0.0181467    -0.2055426
C           4.5263067    -0.2754199    -0.0935692
H           4.5190148    -0.9815884    -0.9198375
C           3.3360949     0.1074331     0.5429303
C           3.3839432     1.0683817     1.5631208
H           2.4529647     1.3670134     2.0329244
C           4.6007997     1.6182858     1.9566174
H           4.6274101     2.3567132     2.7529942
O           0.9440805     0.1136689     0.5408128
C          -0.3549692    -3.7779095    -2.0459801
H          -0.4440087    -4.6881531    -2.6280354
N           0.9043366    -3.3259894    -1.7177239
C           0.8149720    -2.2260570    -1.0208397
S          -0.8113738    -1.6487426    -0.7023886
C          -1.3984949    -3.0244795    -1.6017128
H          -2.4581432    -3.1879301    -1.7409041
22
076_C10H8N2OS_0-2-9-10 (-150,) energy =    -968.8080968
N           1.9527137    -1.5702851    -0.5396328
H           2.8034074    -2.1120819    -0.6240164
C           1.9704571    -0.3333548     0.0719707
C           5.7831575     1.1646080     1.3553017
H           6.7403413     1.5497151     1.6959981
C           5.7241809     0.3400537     0.2302495
H           6.6314592     0.0907584    -0.3127198
C           4.4973889    -0.1601859    -0.2052369
H           4.4616859    -0.7753708    -1.1009574
C           3.3185932     0.1703767     0.4788573
C           3.3829465     1.0115109     1.5981412
H           2.4603211     1.2714292     2.1066880
C           4.6106211     1.5004037     2.0373445
H           4.6542446     2.1447807     2.9108997
O           0.9335420     0.2843057     0.2912049
C          -0.3368779    -3.8536441    -1.9177872
H          -0.4220226    -4.8253627    -2.3908216
N           0.9129375    -3.4090474    -1.5457912
C           0.8202289    -2.2288132    -0.9968262
S          -0.7984469    -1.5599260    -0.8824574
C          -1.3764406    -3.0148304    -1.6540087
H          -2.4287147    -3.1569590    -1.8576047
22
076_C10H8N2OS_0-2-9-10 (-135,) energy =    -968.8066812
N           1.6174183    -1.2637705    -0.2153031
H           1.3452499    -0.7021600     0.5820565
C           2.9137107    -1.2140398    -0.6864763
C           5.5407329     1.4167754     1.4580570
H           6.2051169     2.0935261     1.9883336
C           4.7023341     0.5596455     2.1730408
H           4.7184805     0.5606448     3.2593069
C           3.8424900    -0.3033140     1.4930094
H           3.2019915    -0.9799234     2.0536231
C           3.8343691    -0.3268272     0.0915508
C           4.6820364     0.5307609    -0.6217467
H           4.6712176     0.4973646    -1.7066607
C           5.5281326     1.4019064     0.0607198
H           6.1785273     2.0701693    -0.4966386
O           3.2510752    -1.8082443    -1.7040596
C          -1.4576895    -2.7954335    -0.9630901
H          -2.4896781    -2.8830288    -0.6428272
N          -0.6089540    -1.9874120    -0.2384170
C           0.5834006    -2.0065704    -0.7677594
S           0.7734557    -3.0072035    -2.1973980
C          -0.9131728    -3.4273032    -2.0391986
H          -1.3872419    -4.1011955    -2.7392331
22
076_C10H8N2OS_0-2-9-10 (-120,) energy =    -968.8043314
N           1.6285890    -1.2398585    -0.2485189
H           1.3472885    -0.5874760     0.4733890
C           2.9546285    -1.3217197    -0.6210044
C           5.5015379     1.4465289     1.4492597
H           6.1415039     2.1567352     1.9655837
C           4.7778761     0.5021047     2.1792240
H           4.8564391     0.4710716     3.2623775
C           3.9477742    -0.4041643     1.5181188
H           3.3848316    -1.1401344     2.0869036
C           3.8630199    -0.3860798     0.1199233
C           4.5873763     0.5652487    -0.6092531
H           4.5138047     0.5730672    -1.6926079
C           5.4026496     1.4792585     0.0557441
H           5.9604915     2.2180697    -0.5128522
O           3.3264056    -2.0498567    -1.5327071
C          -1.4827428    -2.6712161    -1.0455004
H          -2.5367703    -2.6651522    -0.7921085
N          -0.6330920    -1.8384145    -0.3504987
C           0.5870643    -1.9819922    -0.7890795
S           0.8058879    -3.1425211    -2.0877971
C          -0.9110581    -3.4455024    -2.0085634
H          -1.3805666    -4.1640701    -2.6659321
22
076_C10H8N2OS_0-2-9-10 (-105,) energy =    -968.8019982
N           1.6241016    -1.2046995    -0.2947452
H           1.3276057    -0.4553201     0.3190121
C           2.9676901    -1.4000956    -0.5348422
C           5.5067430     1.4526317     1.4401288
H           6.1474310     2.1772031     1.9351568
C           4.9039719     0.4337132     2.1794846
H           5.0753533     0.3609304     3.2498783
C           4.0752365    -0.4935477     1.5457392
H           3.6031831    -1.2855068     2.1214437
C           3.8658542    -0.4157081     0.1636103
C           4.4667040     0.6106317    -0.5752691
H           4.2996575     0.6694811    -1.6470379
C           5.2852697     1.5412239     0.0637729
H           5.7495560     2.3363995    -0.5128610
O           3.3698220    -2.2727466    -1.2923832
C          -1.4947356    -2.5768626    -1.1659340
H          -2.5634937    -2.4837284    -1.0100998
N          -0.6548109    -1.6983027    -0.5167492
C           0.5855608    -1.9615407    -0.8222724
S           0.8378787    -3.3013784    -1.9278536
C          -0.8952056    -3.5045831    -1.9619572
H          -1.3528839    -4.2829691    -2.5565531
22
076_C10H8N2OS_0-2-9-10 (-90,) energy =    -968.8010529
N           1.5840326    -1.1410045    -0.3540012
H           1.2772357    -0.2955336     0.1122418
C           2.9300895    -1.4261746    -0.4307449
C           5.5289607     1.4595520     1.4193687
H           6.1941257     2.1824717     1.8835644
C           5.0509809     0.3753381     2.1579172
H           5.3436732     0.2513444     3.1968560
C           4.1973877    -0.5546094     1.5636693
H           3.8310218    -1.4029888     2.1353169
C           3.8176638    -0.4003566     0.2251260
C           4.3000380     0.6854540    -0.5149569
H           4.0127126     0.7998622    -1.5567012
C           5.1540153     1.6126511     0.0832552
H           5.5272418     2.4531532    -0.4952558
O           3.3489276    -2.4330852    -0.9844813
C          -1.5150413    -2.4733435    -1.3490998
H          -2.5854845    -2.3033800    -1.3278394
N          -0.6882349    -1.5457619    -0.7534665
C           0.5562423    -1.9155522    -0.8777505
S           0.8291871    -3.4248936    -1.7311997
C          -0.9012765    -3.5442288    -1.9237946
H          -1.3473308    -4.3823706    -2.4409389
22
076_C10H8N2OS_0-2-9-10 (-75,) energy =    -968.8022288
N           1.5653006    -1.1019197    -0.3987330
H           1.2664439    -0.1876146    -0.0808461
C           2.8940008    -1.4565746    -0.3023725
C           5.5579726     1.4578112     1.3942223
H           6.2471298     2.1821498     1.8195972
C           5.2053178     0.3184934     2.1218366
H           5.6202108     0.1543081     3.1124415
C           4.3280560    -0.6171004     1.5755301
H           4.0686166    -1.5158317     2.1276233
C           3.7767468    -0.4016929     0.3063328
C           4.1441998     0.7321021    -0.4283670
H           3.7401626     0.8860117    -1.4256794
C           5.0323360     1.6603757     0.1174354
H           5.3166283     2.5374311    -0.4573093
O           3.2961945    -2.5606763    -0.6432367
C          -1.4990973    -2.4125906    -1.5211826
H          -2.5533550    -2.1892029    -1.6387667
N          -0.6771012    -1.4479220    -0.9803507
C           0.5475193    -1.8922775    -0.9174733
S           0.8055630    -3.5240244    -1.5107894
C          -0.9015347    -3.5857176    -1.8683489
H          -1.3471310    -4.4683489    -2.3057284
22
076_C10H8N2OS_0-2-9-10 (-60,) energy =    -968.8046325
N           1.5661258    -1.0813891    -0.4374521
H           1.2913725    -0.1257582    -0.2441953
C           2.8577190    -1.4901220    -0.1766729
C           5.5689982     1.4574408     1.3678851
H           6.2715129     2.1895737     1.7565382
C           5.3301833     0.2750508     2.0739463
H           5.8471120     0.0864127     3.0106974
C           4.4389491    -0.6710371     1.5725470
H           4.2683445    -1.6058573     2.0978270
C           3.7513114    -0.4210392     0.3779115
C           4.0092937     0.7539356    -0.3399816
H           3.5104236     0.9311628    -1.2896196
C           4.9154836     1.6918112     0.1573467
H           5.1160450     2.5995528    -0.4048522
O           3.2117242    -2.6521052    -0.3308772
C          -1.4676784    -2.3685705    -1.6645198
H          -2.4934099    -2.1099439    -1.9015746
N          -0.6371060    -1.3856936    -1.1718553
C           0.5497522    -1.8781524    -0.9471393
S           0.7575021    -3.5819875    -1.3149617
C          -0.9145927    -3.6036426    -1.8145427
H          -1.3743796    -4.5107690    -2.1814543
22
076_C10H8N2OS_0-2-9-10 (-45,) energy =    -968.8069021
N           1.5825747    -1.0717912    -0.4769332
H           1.3408145    -0.0914043    -0.4006289
C           2.8236507    -1.5113468    -0.0629100
C           5.5843288     1.4580513     1.3421788
H           6.2962160     2.1966108     1.7004507
C           5.4426716     0.2402997     2.0135784
H           6.0440177     0.0309924     2.8938128
C           4.5384015    -0.7121264     1.5502250
H           4.4359046    -1.6728417     2.0447992
C           3.7433123    -0.4384703     0.4293915
C           3.9036844     0.7743130    -0.2548756
H           3.3292447     0.9723647    -1.1565731
C           4.8213671     1.7202316     0.2031464
H           4.9467048     2.6556356    -0.3349151
O           3.1146500    -2.7018911    -0.0543825
C          -1.4184313    -2.3381970    -1.7988695
H          -2.4067995    -2.0572871    -2.1445023
N          -0.5724731    -1.3491900    -1.3465753
C           0.5641281    -1.8716273    -0.9758752
S           0.7001359    -3.6138647    -1.1417496
C          -0.9270867    -3.6077470    -1.7728875
H          -1.4092860    -4.5259897    -2.0782121
22
076_C10H8N2OS_0-2-9-10 (-30,) energy =    -968.8081691
N           1.5837921    -1.0559461    -0.5356190
H           1.3723755    -0.0667892    -0.5701140
C           2.7616678    -1.5000867     0.0297177
C           5.5946257     1.4519411     1.3294404
H           6.3205966     2.1858745     1.6684407
C           5.5195064     0.2024485     1.9508327
H           6.1863434    -0.0369279     2.7743796
C           4.5940420    -0.7409633     1.5124691
H           4.5320096    -1.7225377     1.9706949
C           3.7185851    -0.4348469     0.4614415
C           3.8088972     0.8140767    -0.1701797
H           3.1772980     1.0497431    -1.0231107
C           4.7441561     1.7530613     0.2641243
H           4.8142948     2.7150146    -0.2356806
O           2.9810242    -2.6966717     0.1876088
C          -1.3864847    -2.3361407    -1.9113621
H          -2.3362788    -2.0541246    -2.3513689
N          -0.5238417    -1.3393533    -1.5109884
C           0.5603864    -1.8642893    -1.0091364
S           0.6214193    -3.6180981    -0.9779709
C          -0.9601428    -3.6144113    -1.7160351
H          -1.4666903    -4.5399245    -1.9521778
22
076_C10H8N2OS_0-2-9-10 (-15,) energy =    -968.8083235
N           1.5952224    -1.0520350    -0.5903096
H           1.4315483    -0.0695016    -0.7657004
C           2.7037125    -1.4705288     0.1153226
C           5.6279312     1.4405112     1.3157788
H           6.3747594     2.1618213     1.6359896
C           5.6054701     0.1598667     1.8734732
H           6.3342236    -0.1182581     2.6296162
C           4.6494950    -0.7642301     1.4609302
H           4.6179223    -1.7656796     1.8764795
C           3.6981572    -0.4167684     0.4910377
C           3.7320603     0.8682129    -0.0712787
H           3.0386025     1.1568182    -0.8569239
C           4.6932241     1.7906436     0.3396119
H           4.7151451     2.7802179    -0.1078773
O           2.8479450    -2.6515191     0.4178963
C          -1.3319332    -2.3650854    -2.0238696
H          -2.2320313    -2.0986737    -2.5661870
N          -0.4488899    -1.3649587    -1.6807172
C           0.5681104    -1.8704280    -1.0374973
S           0.5349382    -3.6077203    -0.7919479
C          -0.9879686    -3.6266759    -1.6443053
H          -1.5242710    -4.5514174    -1.8060998
22
076_C10H8N2OS_0-2-9-10 (0,) energy =    -968.8080805
N           1.6211831    -1.0548841    -0.6424729
H           1.5628073    -0.1174444    -1.0164076
C           2.6446437    -1.4281463     0.2016405
C           5.6716496     1.4246912     1.2934424
H           6.4478684     2.1273924     1.5837045
C           5.6951030     0.1139928     1.7753549
H           6.4898331    -0.2076281     2.4425280
C           4.6995805    -0.7844388     1.4020760
H           4.6981683    -1.8067292     1.7640853
C           3.6659346    -0.3860329     0.5415840
C           3.6497303     0.9326344     0.0620021
H           2.8689345     1.2860401    -0.6062669
C           4.6472630     1.8313226     0.4365466
H           4.6230821     2.8492115     0.0580766
O           2.7011575    -2.5713483     0.6468395
C          -1.2480597    -2.4076706    -2.1522629
H          -2.0782783    -2.1754318    -2.8095906
N          -0.3343146    -1.4164766    -1.8690969
C           0.5875144    -1.8764585    -1.0675688
S           0.4208747    -3.5564169    -0.5894030
C          -1.0225908    -3.6170804    -1.5687255
H          -1.6032226    -4.5255380    -1.6495269
22
076_C10H8N2OS_0-2-9-10 (15,) energy =    -968.8083235
N           1.6467545    -1.0784993    -0.6647442
H           1.7308369    -0.2231733    -1.1979175
C           2.5739767    -1.4039235     0.3028123
C           5.6808627     1.4133826     1.2393073
H           6.4792367     2.1082743     1.4848722
C           5.7601789     0.0804978     1.6500327
H           6.6209002    -0.2653054     2.2155113
C           4.7356533    -0.8084305     1.3366606
H           4.7743508    -1.8459073     1.6508587
C           3.6220864    -0.3777790     0.6011416
C           3.5447598     0.9643121     0.1994854
H           2.6760401     1.3427912    -0.3329591
C           4.5694313     1.8541669     0.5184802
H           4.4956802     2.8928372     0.2091130
O           2.5309834    -2.4887889     0.8757877
C          -1.1721107    -2.4471110    -2.2548734
H          -1.9209018    -2.2584022    -3.0157682
N          -0.2134865    -1.4858374    -2.0208463
C           0.5961414    -1.8847910    -1.0780515
S           0.2617110    -3.4673329    -0.3973907
C          -1.0930656    -3.5726198    -1.4926599
H          -1.7323559    -4.4444468    -1.5057112
22
076_C10H8N2OS_0-2-9-10 (30,) energy =    -968.8081691
N           1.6941115    -1.1257400    -0.6921316
H           1.8792621    -0.3397303    -1.3022176
C           2.5187663    -1.3837992     0.3837718
C           5.6736747     1.4104331     1.2023773
H           6.4805252     2.1047082     1.4204904
C           5.8011979     0.0605492     1.5406667
H           6.7072916    -0.2972420     2.0214947
C           4.7650299    -0.8285330     1.2675205
H           4.8384056    -1.8767336     1.5380561
C           3.5987918    -0.3795393     0.6326187
C           3.4687064     0.9791496     0.3101733
H           2.5498044     1.3569353    -0.1312547
C           4.5037304     1.8695434     0.5945870
H           4.3920397     2.9220479     0.3499429
O           2.3793248    -2.3945646     1.0647564
C          -1.0777908    -2.5123304    -2.3492811
H          -1.7540087    -2.3720698    -3.1849268
N          -0.0816705    -1.5828754    -2.1444811
C           0.6277419    -1.9139135    -1.1004372
S           0.1461738    -3.3892201    -0.2805020
C          -1.1268007    -3.5458485    -1.4642129
H          -1.8165129    -4.3778853    -1.4335004
22
076_C10H8N2OS_0-2-9-10 (45,) energy =    -968.8069023
N           1.7334325    -1.1583395    -0.7040430
H           2.0003373    -0.4399428    -1.3659249
C           2.4558510    -1.3286575     0.4595704
C           5.6824260     1.4064435     1.1818073
H           6.5026934     2.0905909     1.3810901
C           5.8344855     0.0401787     1.4346865
H           6.7723790    -0.3389749     1.8307168
C           4.7810795    -0.8372736     1.1898980
H           4.8744456    -1.8968330     1.4059957
C           3.5771551    -0.3576294     0.6571140
C           3.4200074     1.0159052     0.4257879
H           2.4709138     1.4033141     0.0632968
C           4.4721953     1.8943714     0.6863148
H           4.3427428     2.9587938     0.5118203
O           2.2176063    -2.2466516     1.2358849
C          -0.9996315    -2.5702984    -2.4057557
H          -1.6100582    -2.4864303    -3.2977135
N           0.0316314    -1.6744236    -2.2260786
C           0.6499813    -1.9270987    -1.1053396
S           0.0317744    -3.2809379    -0.1745868
C          -1.1655556    -3.5004246    -1.4253688
H          -1.9021294    -4.2890599    -1.3588530
22
076_C10H8N2OS_0-2-9-10 (60,) energy =    -968.8046326
N           1.7543403    -1.1754835    -0.7166142
H           2.1015555    -0.5387356    -1.4237685
C           2.3745069    -1.2384761     0.5141469
C           5.6991022     1.3975305     1.1655216
H           6.5408409     2.0589919     1.3513397
C           5.8511248     0.0157539     1.3111038
H           6.8098748    -0.3978909     1.6111207
C           4.7707964    -0.8343582     1.0852845
H           4.8696702    -1.9066310     1.2242661
C           3.5395303    -0.3078386     0.6737344
C           3.3829123     1.0788596     0.5512324
H           2.4166099     1.4937223     0.2751608
C           4.4630960     1.9286240     0.7946746
H           4.3358157     3.0036343     0.7027476
O           2.0287371    -2.0400252     1.3728555
C          -0.9222152    -2.6463892    -2.4599068
H          -1.4617264    -2.6373493    -3.4001506
N           0.1386208    -1.7816498    -2.3003021
C           0.6610308    -1.9330443    -1.1146193
S          -0.0929050    -3.1436515    -0.0911542
C          -1.2061488    -3.4518024    -1.3994815
H          -1.9857350    -4.1947826    -1.3039149
22
076_C10H8N2OS_0-2-9-10 (75,) energy =    -968.8022282
N           1.7764949    -1.2123890    -0.7195229
H           2.2111024    -0.6762259    -1.4611068
C           2.2878973    -1.1476672     0.5590577
C           5.7161676     1.3754497     1.1484039
H           6.5824471     2.0091501     1.3173752
C           5.8530695    -0.0147999     1.1681111
H           6.8246708    -0.4641759     1.3536816
C           4.7419116    -0.8305141     0.9601251
H           4.8392164    -1.9117123     0.9975517
C           3.4908543    -0.2562981     0.7030911
C           3.3518360     1.1368390     0.7004338
H           2.3753901     1.5832218     0.5305648
C           4.4647585     1.9499401     0.9210846
H           4.3519625     3.0305155     0.9205958
O           1.8200510    -1.8055264     1.4784592
C          -0.8165251    -2.7770356    -2.5080169
H          -1.2714253    -2.8652741    -3.4880541
N           0.2730939    -1.9467307    -2.3592541
C           0.6818198    -1.9675188    -1.1208327
S          -0.2245902    -3.0007170    -0.0290023
C          -1.2349867    -3.4264122    -1.3868560
H          -2.0591878    -4.1167528    -1.2727368
22
076_C10H8N2OS_0-2-9-10 (90,) energy =    -968.8010529
N           1.8192392    -1.2710653    -0.7016138
H           2.3558991    -0.8580574    -1.4551032
C           2.2070174    -1.0627367     0.6042705
C           5.7270824     1.3568174     1.1138489
H           6.6151777     1.9669960     1.2535101
C           5.8430297    -0.0300224     1.0012974
H           6.8202195    -0.5019591     1.0543466
C           4.7038780    -0.8155207     0.8227303
H           4.7923589    -1.8955848     0.7428633
C           3.4421614    -0.2129446     0.7544719
C           3.3271258     1.1772638     0.8705866
H           2.3467415     1.6439945     0.8271749
C           4.4690203     1.9588080     1.0497672
H           4.3750518     3.0373666     1.1408506
O           1.5904869    -1.5386154     1.5473242
C          -0.6906681    -2.9116635    -2.5396557
H          -1.0506605    -3.1076869    -3.5432337
N           0.4380807    -2.1368057    -2.3837138
C           0.7182692    -2.0103373    -1.1162696
S          -0.3683938    -2.8230776    -0.0028935
C          -1.2661342    -3.3725396    -1.3950127
H          -2.1468861    -3.9892047    -1.2815017
22
076_C10H8N2OS_0-2-9-10 (105,) energy =    -968.8019980
N           1.8668340    -1.3377373    -0.6533339
H           2.5060946    -1.0674959    -1.3912356
C           2.1392876    -0.9827952     0.6508257
C           5.7336303     1.3349616     1.0912624
H           6.6391837     1.9252756     1.2009890
C           5.8197225    -0.0357069     0.8421796
H           6.7908607    -0.5158297     0.7598281
C           4.6571009    -0.7937556     0.6941266
H           4.7234589    -1.8606665     0.4972287
C           3.4030589    -0.1836684     0.8178495
C           3.3188314     1.1924483     1.0619506
H           2.3440427     1.6628223     1.1546733
C           4.4829678     1.9478246     1.1984665
H           4.4136360     3.0154486     1.3875371
O           1.3811593    -1.2617083     1.5698196
C          -0.5553547    -3.0724932    -2.5221618
H          -0.8213924    -3.3920184    -3.5233257
N           0.6100795    -2.3587408    -2.3458207
C           0.7639262    -2.0638191    -1.0846650
S          -0.4976857    -2.6289400    -0.0029494
C          -1.2847788    -3.3193396    -1.3993248
H          -2.2191040    -3.8548740    -1.3037316
22
076_C10H8N2OS_0-2-9-10 (120,) energy =    -968.8043314
N           1.8981244    -1.3869498    -0.6451809
H           2.6072951    -1.2417607    -1.3536201
C           2.0838341    -0.8831598     0.6258461
C           5.7376986     1.3242759     1.0876232
H           6.6566144     1.8934081     1.1982742
C           5.7897606    -0.0166696     0.7033855
H           6.7475898    -0.4953223     0.5195682
C           4.6095116    -0.7456474     0.5513278
H           4.6503014    -1.7902508     0.2526046
C           3.3734359    -0.1406182     0.8129711
C           3.3241891     1.2060531     1.1944131
H           2.3614037     1.6673332     1.3929057
C           4.5042955     1.9350651     1.3292048
H           4.4621580     2.9804526     1.6219636
O           1.2240849    -0.9808339     1.4923972
C          -0.4753937    -3.2013262    -2.4993633
H          -0.6779253    -3.6325825    -3.4731278
N           0.7196028    -2.5433592    -2.3056103
C           0.7869026    -2.0953441    -1.0823025
S          -0.6003950    -2.4343148    -0.0615687
C          -1.3133680    -3.2539725    -1.4275122
H          -2.2884812    -3.7149990    -1.3532383
22
076_C10H8N2OS_0-2-9-10 (135,) energy =    -968.8066812
N           1.9148326    -1.4249566    -0.6525774
H           2.6652345    -1.3864409    -1.3313090
C           2.0436636    -0.7759504     0.5586370
C           5.7519230     1.3074604     1.1326181
H           6.6828412     1.8492486     1.2755985
C           5.7718386     0.0113804     0.6143855
H           6.7167825    -0.4613387     0.3616815
C           4.5764210    -0.6817497     0.4220385
H           4.5975393    -1.6966310     0.0323069
C           3.3555458    -0.0868402     0.7688294
C           3.3409973     1.2117471     1.2944306
H           2.3894372     1.6580817     1.5657035
C           4.5354687     1.9065127     1.4707237
H           4.5187464     2.9159633     1.8719334
O           1.1193901    -0.7247736     1.3620553
C          -0.4321552    -3.3349084    -2.4428590
H          -0.5965463    -3.8679445    -3.3724233
N           0.7805331    -2.7110753    -2.2463308
C           0.7962538    -2.1265897    -1.0799649
S          -0.6669871    -2.2819177    -0.1228555
C          -1.3353350    -3.2260010    -1.4298560
H          -2.3354465    -3.6321538    -1.3687096
22
076_C10H8N2OS_0-2-9-10 (150,) energy =    -968.8080966
N           1.9274561    -1.4686073    -0.6650108
H           2.7048561    -1.5272411    -1.3104224
C           2.0136567    -0.6770395     0.4620964
C           5.7582880     1.2902027     1.1940513
H           6.6967641     1.8036897     1.3842525
C           5.7592132     0.0535024     0.5462360
H           6.6966545    -0.4028018     0.2411000
C           4.5553379    -0.6044458     0.2958269
H           4.5724643    -1.5812811    -0.1811771
C           3.3413063    -0.0315122     0.7016796
C           3.3486545     1.2027656     1.3657123
H           2.4025385     1.6250410     1.6881463
C           4.5513907     1.8627376     1.6043841
H           4.5490397     2.8233558     2.1117610
O           1.0434066    -0.4976064     1.1909255
C          -0.4101572    -3.4568363    -2.3791941
H          -0.5491771    -4.0800579    -3.2552746
N           0.8187096    -2.8673087    -2.1780854
C           0.7988912    -2.1599536    -1.0816470
S          -0.7200737    -2.1487374    -0.2023247
C          -1.3611181    -3.2001061    -1.4391781
H          -2.3820286    -3.5533593    -1.3957290
22
076_C10H8N2OS_0-2-9-10 (165,) energy =    -968.8083382
N           1.9385992    -1.5078625    -0.6674559
H           2.7438087    -1.6907787    -1.2515994
C           2.0006365    -0.5832192     0.3539929
C           5.7702971     1.2727918     1.2540624
H           6.7123980     1.7581077     1.4938523
C           5.7609523     0.1133432     0.4764593
H           6.6940395    -0.3115371     0.1175514
C           4.5534627    -0.5102488     0.1653569
H           4.5780109    -1.4308237    -0.4119891
C           3.3413109     0.0225591     0.6293965
C           3.3616758     1.1772562     1.4248198
H           2.4177061     1.5664023     1.7910068
C           4.5679583     1.8015172     1.7300467
H           4.5716256     2.6997539     2.3410610
O           0.9958598    -0.2798678     0.9906494
C          -0.4001275    -3.5704346    -2.2869639
H          -0.5197567    -4.2890941    -3.0897558
N           0.8454214    -3.0219302    -2.0736658
C           0.7976005    -2.1844898    -1.0737318
S          -0.7697758    -1.9901849    -0.3087224
C          -1.3914638    -3.1531194    -1.4520295
H          -2.4317156    -3.4473961    -1.4372757
22
076_C10H8N2OS_0-2-9-10 (180,) energy =    -968.8080804
N           1.9549184    -1.5576404    -0.6305275
H           2.7961400    -1.9242251    -1.0547728
C           2.0001091    -0.5112852     0.2652486
C           5.7781326     1.2621796     1.3020866
H           6.7203354     1.7266433     1.5797188
C           5.7635213     0.2036874     0.3919294
H           6.6918814    -0.1581625    -0.0406630
C           4.5566725    -0.3945960     0.0333277
H           4.5853158    -1.2158895    -0.6778549
C           3.3481347     0.0603260     0.5825323
C           3.3739498     1.1244281     1.4961204
H           2.4319570     1.4648174     1.9119588
C           4.5797292     1.7210739     1.8533967
H           4.5853731     2.5443557     2.5621549
O           0.9686236    -0.0785878     0.7723305
C          -0.3823514    -3.6843958    -2.1652470
H          -0.4843256    -4.5070308    -2.8639234
N           0.8779580    -3.1928476    -1.9053121
C           0.8050001    -2.2120119    -1.0471638
S          -0.8053181    -1.8036572    -0.4825360
C          -1.4102294    -3.0802438    -1.5075947
H          -2.4677201    -3.2993374    -1.5592593
