24
008_C12H11N_5-6-10-9 (-165,) energy =    -518.6524097
N           0.8279469    -0.4707724    -1.1805198
C          -0.3520382     0.1264876    -1.3766105
C          -1.2159090     0.5006947    -0.3459093
C          -0.8239048     0.2336960     0.9644055
C           0.4033430    -0.3901025     1.1831505
C           1.2045167    -0.7274803     0.0842315
C           2.5476969    -1.4009610     0.2636224
C           6.0700758     1.1403082     0.2558175
C           6.1806579    -0.2420016     0.0873754
C           5.0368393    -1.0383445     0.0781192
C           3.7621225    -0.4760483     0.2384764
C           3.6642434     0.9093675     0.4061439
C           4.8081634     1.7116216     0.4138483
H          -0.6224713     0.3133401    -2.4150981
H          -2.1639742     0.9813156    -0.5680844
H          -1.4624222     0.5023832     1.8019505
H           0.7404929    -0.6160462     2.1910766
H           2.5468331    -1.9543744     1.2131354
H           2.6588201    -2.1445984    -0.5335612
H           6.9595670     1.7646617     0.2599279
H           7.1581065    -0.6999939    -0.0415801
H           5.1314121    -2.1138421    -0.0586586
H           2.6884372     1.3705742     0.5252678
H           4.7084777     2.7866231     0.5414448
24
008_C12H11N_5-6-10-9 (-150,) energy =    -518.6527167
N           0.8995525    -0.5089288    -1.1372945
C          -0.2665206     0.0781001    -1.4227661
C          -1.1922435     0.4812871    -0.4581780
C          -0.8816453     0.2544710     0.8807170
C           0.3311171    -0.3591502     1.1924250
C           1.1988825    -0.7251743     0.1553916
C           2.5319505    -1.3875380     0.4344941
C           6.0554991     1.1342383     0.1666043
C           6.1238285    -0.2230095    -0.1522195
C           4.9790045    -1.0170250    -0.0820789
C           3.7474943    -0.4752528     0.3083846
C           3.6913306     0.8872265     0.6265984
C           4.8340321     1.6856925     0.5552568
H          -0.4737997     0.2323047    -2.4809977
H          -2.1250312     0.9529982    -0.7523826
H          -1.5705437     0.5459945     1.6693079
H           0.6047485    -0.5562143     2.2253425
H           2.5122087    -1.8182685     1.4455460
H           2.6484868    -2.2245919    -0.2625915
H           6.9445608     1.7565635     0.1086695
H           7.0677763    -0.6643143    -0.4619465
H           5.0398070    -2.0726448    -0.3383514
H           2.7458163     1.3315231     0.9253398
H           4.7672886     2.7423422     0.8019895
24
008_C12H11N_5-6-10-9 (-135,) energy =    -518.6530747
N           0.9621360    -0.5806950    -1.1179395
C          -0.1878755    -0.0096036    -1.4874967
C          -1.1572012     0.4425266    -0.5895470
C          -0.9105898     0.2836550     0.7720692
C           0.2849501    -0.3128148     1.1716925
C           1.2002719    -0.7295221     0.1966866
C           2.5209955    -1.3729667     0.5709710
C           6.0266118     1.1403751     0.1017706
C           6.0303722    -0.1732588    -0.3676166
C           4.8925918    -0.9702919    -0.2288430
C           3.7349474    -0.4724499     0.3799525
C           3.7427269     0.8486003     0.8476914
C           4.8767670     1.6485626     0.7098739
H          -0.3450812     0.0899796    -2.5608219
H          -2.0737710     0.8989276    -0.9511255
H          -1.6354218     0.6142951     1.5115089
H           0.5076636    -0.4591932     2.2250789
H           2.4743649    -1.7019371     1.6181980
H           2.6495938    -2.2728693    -0.0400424
H           6.9097486     1.7642573    -0.0074970
H           6.9173879    -0.5793071    -0.8471706
H           4.9016173    -1.9918057    -0.6022689
H           2.8511444     1.2577087     1.3166598
H           4.8615470     2.6718211     1.0766526
24
008_C12H11N_5-6-10-9 (-120,) energy =    -518.6533748
N           1.0093520    -0.6873341    -1.0950985
C          -0.1226149    -0.1329314    -1.5385617
C          -1.1111593     0.3944655    -0.7049977
C          -0.9045903     0.3325097     0.6710419
C           0.2717059    -0.2451611     1.1476840
C           1.2091731    -0.7409722     0.2329705
C           2.5162467    -1.3622692     0.6904873
C           5.9923886     1.1530239     0.0580623
C           5.9057436    -0.0952325    -0.5579628
C           4.7811446    -0.8989861    -0.3587814
C           3.7279661    -0.4710570     0.4562377
C           3.8256186     0.7854584     1.0700816
C           4.9462167     1.5912377     0.8735974
H          -0.2484330    -0.1110710    -2.6203997
H          -2.0113477     0.8328021    -1.1253134
H          -1.6459691     0.7232625     1.3632681
H           0.4615562    -0.3173186     2.2150959
H           2.4420453    -1.6081424     1.7578313
H           2.6565309    -2.3043633     0.1503013
H           6.8662421     1.7806424    -0.0955291
H           6.7123750    -0.4460755    -1.1966004
H           4.7178254    -1.8691009    -0.8458181
H           3.0143224     1.1383265     1.7029964
H           5.0034788     2.5627249     1.3580658
24
008_C12H11N_5-6-10-9 (-105,) energy =    -518.6537650
N           1.0527095    -0.7959460    -1.0706056
C          -0.0621347    -0.2660439    -1.5823419
C          -1.0591537     0.3383434    -0.8141223
C          -0.8814877     0.3863878     0.5667990
C           0.2766088    -0.1636987     1.1144137
C           1.2237921    -0.7430016     0.2611634
C           2.5170355    -1.3370302     0.7925898
C           5.9637279     1.1770082     0.0202731
C           5.7579105     0.0177169    -0.7280633
C           4.6481155    -0.7917103    -0.4775124
C           3.7276013    -0.4566678     0.5214467
C           3.9446112     0.7097282     1.2674529
C           5.0516090     1.5209740     1.0206571
H          -0.1657572    -0.3304666    -2.6648233
H          -1.9449341     0.7516117    -1.2870965
H          -1.6317048     0.8409731     1.2087060
H           0.4447653    -0.1496253     2.1877943
H           2.4194104    -1.5081304     1.8716170
H           2.6647770    -2.3125469     0.3177729
H           6.8282496     1.8069525    -0.1718349
H           6.4619076    -0.2598246    -1.5084186
H           4.4892997    -1.6908195    -1.0673293
H           3.2397122     0.9852668     2.0492072
H           5.2040315     2.4207088     1.6114071
24
008_C12H11N_5-6-10-9 (-90,) energy =    -518.6543317
N           1.0390545    -0.9631135    -1.0246319
C          -0.0625952    -0.4655987    -1.5959853
C          -1.0381960     0.2552222    -0.9058080
C          -0.8518971     0.4654892     0.4592331
C           0.2925445    -0.0474207     1.0669910
C           1.2182394    -0.7552011     0.2903246
C           2.4990957    -1.3139077     0.8877701
C           5.9363854     1.1855515     0.0379331
C           5.5828809     0.1539523    -0.8338356
C           4.4788383    -0.6528788    -0.5559534
C           3.7098408    -0.4409099     0.5951115
C           4.0739144     0.5958423     1.4633607
C           5.1775229     1.4046239     1.1888806
H          -0.1724324    -0.6571441    -2.6626520
H          -1.9142926     0.6333750    -1.4240062
H          -1.5852379     1.0167049     1.0422285
H           0.4680366     0.0944508     2.1297699
H           2.3777848    -1.4220244     1.9718774
H           2.6589867    -2.3135247     0.4709423
H           6.7987269     1.8114995    -0.1758989
H           6.1694154    -0.0258920    -1.7312215
H           4.1998997    -1.4489215    -1.2410025
H           3.4910643     0.7692623     2.3657766
H           5.4468823     2.2022325     1.8766296
24
008_C12H11N_5-6-10-9 (-75,) energy =    -518.6548130
N           1.0056112    -1.1487665    -0.9681942
C          -0.0876384    -0.6934268    -1.5908456
C          -1.0239029     0.1522701    -0.9961993
C          -0.8046340     0.5461115     0.3232423
C           0.3313306     0.0814597     0.9817506
C           1.2158421    -0.7659134     0.3020253
C           2.4861084    -1.2792381     0.9586689
C           5.9282664     1.1996119     0.0664696
C           5.4135951     0.3317775    -0.8999699
C           4.3083008    -0.4672787    -0.6095700
C           3.6977938    -0.4112004     0.6511124
C           4.2214278     0.4611608     1.6120522
C           5.3286318     1.2623187     1.3244280
H          -0.2224972    -1.0275990    -2.6187115
H          -1.8956959     0.4863851    -1.5506245
H          -1.5065956     1.2021252     0.8315518
H           0.5345194     0.3684336     2.0097159
H           2.3426436    -1.3319600     2.0438690
H           2.6606635    -2.2979525     0.5969740
H           6.7920148     1.8194417    -0.1592354
H           5.8762472     0.2750903    -1.8820678
H           3.9005149    -1.1333954    -1.3650070
H           3.7632115     0.5103023     2.5977902
H           5.7231318     1.9313953     2.0850027
24
008_C12H11N_5-6-10-9 (-60,) energy =    -518.6549394
N           0.4523219     0.8601163    -0.1975929
C          -0.5882539     0.8481455     0.6447469
C          -0.9991801    -0.2787993     1.3552909
C          -0.2794240    -1.4607254     1.1807548
C           0.8078146    -1.4608078     0.3111263
C           1.1441084    -0.2793631    -0.3636929
C           2.3344310    -0.2207090    -1.3037636
C           6.0333015     0.8635569     0.6826666
C           4.9416171     1.7357589     0.7002218
C           3.7520667     1.3860871     0.0628345
C           3.6337893     0.1586679    -0.6052294
C           4.7321247    -0.7082864    -0.6147793
C           5.9253965    -0.3602402     0.0226911
H          -1.1227660     1.7911218     0.7510984
H          -1.8558806    -0.2291651     2.0206170
H          -0.5609027    -2.3665129     1.7115765
H           1.3937686    -2.3619220     0.1529742
H           2.4615327    -1.1901985    -1.7985730
H           2.1049494     0.5174989    -2.0805357
H           6.9604595     1.1374978     1.1791635
H           5.0173768     2.6919934     1.2118136
H           2.9010520     2.0615619     0.0815306
H           4.6558545    -1.6636553    -1.1299853
H           6.7682254    -1.0465368     0.0023813
24
008_C12H11N_5-6-10-9 (-45,) energy =    -518.6544666
N           0.4332996     0.8401880    -0.3026870
C          -0.6353496     0.8903373     0.5029568
C          -1.0604832    -0.1742959     1.2960331
C          -0.3246873    -1.3586321     1.2518805
C           0.7913019    -1.4223273     0.4221949
C           1.1399322    -0.3016566    -0.3448059
C           2.3537850    -0.3207640    -1.2531751
C           6.0646738     0.8793263     0.6496942
C           4.8970438     1.6154400     0.8634782
C           3.7000761     1.2307252     0.2598965
C           3.6510653     0.1043577    -0.5737268
C           4.8258785    -0.6297404    -0.7769778
C           6.0254062    -0.2453795    -0.1743921
H          -1.1806851     1.8330780     0.5079582
H          -1.9400272    -0.0761761     1.9251914
H          -0.6160886    -2.2170590     1.8515673
H           1.3905488    -2.3267092     0.3641328
H           2.4841209    -1.3250973    -1.6720609
H           2.1450026     0.3549353    -2.0917446
H           6.9959984     1.1797913     1.1224760
H           4.9173909     2.4931799     1.5045594
H           2.7955016     1.8087839     0.4257238
H           4.8027995    -1.5107421    -1.4153390
H           6.9263958    -0.8288430    -0.3462568
24
008_C12H11N_5-6-10-9 (-30,) energy =    -518.6536520
N           0.3583496     0.7862358    -0.4746250
C          -0.7325020     0.8887341     0.2966174
C          -1.1164534    -0.0727931     1.2297446
C          -0.3151972    -1.2062713     1.3713672
C           0.8220422    -1.3229610     0.5777013
C           1.1271676    -0.3069072    -0.3397821
C           2.3579770    -0.3918894    -1.2185592
C           6.0900934     0.8600753     0.6131946
C           4.8851439     1.4291641     1.0277121
C           3.6786946     1.0271999     0.4517225
C           3.6569427     0.0519491    -0.5532367
C           4.8725526    -0.5171316    -0.9562903
C           6.0802769    -0.1164646    -0.3842983
H          -1.3296323     1.7885485     0.1551779
H          -2.0150602     0.0637243     1.8238761
H          -0.5730521    -1.9844781     2.0850576
H           1.4724243    -2.1892005     0.6616477
H           2.4820135    -1.4187253    -1.5839041
H           2.1689894     0.2382597    -2.0965195
H           7.0280326     1.1721982     1.0647939
H           4.8812372     2.1893547     1.8048169
H           2.7480752     1.4828525     0.7765848
H           4.8720899    -1.2840397    -1.7282973
H           7.0111630    -0.5716735    -0.7130653
24
008_C12H11N_5-6-10-9 (-15,) energy =    -518.6528994
N           0.3602762     0.7282707    -0.5701801
C          -0.7511596     0.8926621     0.1586543
C          -1.1579726     0.0157814     1.1634259
C          -0.3580469    -1.0967194     1.4253571
C           0.8005982    -1.2792672     0.6755899
C           1.1274521    -0.3453338    -0.3183477
C           2.3770862    -0.5019466    -1.1577558
C           6.1081148     0.8849809     0.5821596
C           4.8950256     1.2692740     1.1521046
C           3.6869100     0.8264868     0.6072791
C           3.6708018    -0.0046485    -0.5181516
C           4.8975287    -0.3879565    -1.0797740
C           6.1046434     0.0530086    -0.5400506
H          -1.3469698     1.7730734    -0.0782665
H          -2.0726284     0.1999263     1.7190305
H          -0.6335033    -1.8102402     2.1976272
H           1.4496393    -2.1326032     0.8521319
H           2.5054390    -1.5576860    -1.4299897
H           2.2072499     0.0468815    -2.0920298
H           7.0476300     1.2278016     1.0074173
H           4.8839980     1.9162372     2.0256743
H           2.7503988     1.1404236     1.0577710
H           4.9042754    -1.0399827    -1.9511509
H           7.0432173    -0.2570627    -0.9925371
24
008_C12H11N_5-6-10-9 (0,) energy =    -518.6524356
N           0.4445419     0.7032729    -0.5924017
C          -0.6801909     0.9462324     0.0908084
C          -1.1673080     0.1223686     1.1057205
C          -0.4381408    -1.0219033     1.4269973
C           0.7341551    -1.2863744     0.7227028
C           1.1456684    -0.4004523    -0.2830122
C           2.4131318    -0.6421635    -1.0729034
C           6.1179479     0.9533010     0.5414709
C           4.9230704     1.1573330     1.2293704
C           3.7207690     0.6532813     0.7251025
C           3.6938343    -0.0618430    -0.4763746
C           4.9030261    -0.2605704    -1.1598806
C           6.1032822     0.2402918    -0.6601950
H          -1.2211394     1.8481404    -0.1925064
H          -2.0893194     0.3708769     1.6227586
H          -0.7772488    -1.6972697     2.2082286
H           1.3288726    -2.1682477     0.9444975
H           2.5516501    -1.7228720    -1.2121075
H           2.2645800    -0.2125647    -2.0705698
H           7.0520572     1.3456697     0.9345709
H           4.9205697     1.7125684     2.1639766
H           2.7986701     0.8272078     1.2708279
H           4.9003475    -0.8147391    -2.0966453
H           7.0274421     0.0743887    -1.2081227
24
008_C12H11N_5-6-10-9 (15,) energy =    -518.6523937
N           0.5268835     0.6750442    -0.5910330
C          -0.6056513     0.9941720     0.0440813
C          -1.1802345     0.2149246     1.0496081
C          -0.5346113    -0.9660827     1.4107340
C           0.6461404    -1.3112464     0.7552929
C           1.1486691    -0.4645358    -0.2417056
C           2.4284934    -0.7881974    -0.9812734
C           6.0916260     1.0323255     0.4813885
C           4.9462184     1.0533392     1.2758439
C           3.7570365     0.4809867     0.8166768
C           3.6929467    -0.1220177    -0.4438429
C           4.8503254    -0.1325583    -1.2359555
C           6.0387365     0.4354973    -0.7805935
H          -1.0807405     1.9224682    -0.2706634
H          -2.1043757     0.5256120     1.5277399
H          -0.9433200    -1.6094317     2.1856237
H           1.1756100    -2.2256287     1.0086262
H           2.5770870    -1.8770900    -0.9803894
H           2.2950548    -0.4898123    -2.0272325
H           7.0156873     1.4794476     0.8381058
H           4.9725678     1.5193310     2.2576685
H           2.8725472     0.5115212     1.4457559
H           4.8165293    -0.5904667    -2.2226463
H           6.9226874     0.4168145    -1.4131013
24
008_C12H11N_5-6-10-9 (30,) energy =    -518.6526595
N           0.6097824     0.6344840    -0.6142538
C          -0.5295744     1.0236712    -0.0342590
C          -1.1797476     0.3017276     0.9687126
C          -0.6061046    -0.8971321     1.3861067
C           0.5818142    -1.3159695     0.7878380
C           1.1632514    -0.5217150    -0.2089041
C           2.4561342    -0.9225627    -0.8877993
C           6.0592185     1.0999710     0.4454455
C           4.9915400     0.9306366     1.3274821
C           3.8225516     0.2948326     0.9053554
C           3.7002686    -0.1841928    -0.4045110
C           4.7766173    -0.0016922    -1.2828653
C           5.9472957     0.6307469    -0.8645814
H          -0.9477894     1.9633661    -0.3929532
H          -2.1054445     0.6693676     1.4012697
H          -1.0748041    -1.4985620     2.1607220
H           1.0550852    -2.2477501     1.0851605
H           2.6082901    -2.0032311    -0.7561645
H           2.3428141    -0.7493377    -1.9635876
H           6.9678700     1.5976913     0.7735923
H           5.0645964     1.2976837     2.3481596
H           2.9966830     0.1765287     1.6012965
H           4.6942535    -0.3573255    -2.3078159
H           6.7685126     0.7632221    -1.5644373
24
008_C12H11N_5-6-10-9 (45,) energy =    -518.6530301
N           0.6820157     0.5775191    -0.6576932
C          -0.4622270     1.0282370    -0.1358909
C          -1.1671249     0.3758710     0.8781671
C          -0.6473971    -0.8185137     1.3712698
C           0.5455749    -1.3013745     0.8338968
C           1.1842672    -0.5734716    -0.1780701
C           2.4875537    -1.0438832    -0.7928434
C           6.0215924     1.1658368     0.4141339
C           5.0691770     0.7960127     1.3659976
C           3.9253451     0.0977161     0.9793673
C           3.7119556    -0.2460039    -0.3621618
C           4.6708719     0.1362235    -1.3072042
C           5.8182098     0.8339192    -0.9255794
H          -0.8387931     1.9614949    -0.5528718
H          -2.0936452     0.7927521     1.2614601
H          -1.1602520    -1.3673142     2.1569623
H           0.9774395    -2.2329216     1.1893310
H           2.6367477    -2.1028164    -0.5408006
H           2.3952440    -0.9866969    -1.8829125
H           6.9119020     1.7120661     0.7142263
H           5.2149577     1.0542793     2.4119068
H           3.1866238    -0.1775924     1.7279970
H           4.5156271    -0.1127651    -2.3545299
H           6.5487595     1.1225131    -1.6770517
24
008_C12H11N_5-6-10-9 (60,) energy =    -518.6533563
N           0.7181544     0.4885688    -0.7526157
C          -0.4255833     0.9981735    -0.2861848
C          -1.1474537     0.4484093     0.7753252
C          -0.6467453    -0.7027833     1.3788175
C           0.5451145    -1.2461469     0.9006830
C           1.2025861    -0.6189472    -0.1651085
C           2.5128094    -1.1514399    -0.7156093
C           5.9743992     1.2067120     0.4121285
C           5.1739249     0.6184859     1.3943613
C           4.0586322    -0.1350917     1.0310755
C           3.7232869    -0.3182520    -0.3176272
C           4.5288863     0.2804195    -1.2919168
C           5.6473580     1.0357248    -0.9328555
H          -0.7869875     1.8937460    -0.7901782
H          -2.0723806     0.9084368     1.1099950
H          -1.1743368    -1.1730575     2.2046652
H           0.9604680    -2.1480072     1.3420292
H           2.6504039    -2.1862336    -0.3755338
H           2.4410386    -1.1767361    -1.8079325
H           6.8436507     1.7947719     0.6944348
H           5.4182426     0.7478227     2.4457288
H           3.4381519    -0.5830106     1.8040973
H           4.2759198     0.1564080    -2.3421224
H           6.2599655     1.4923312    -1.7060508
24
008_C12H11N_5-6-10-9 (75,) energy =    -518.6537910
N           0.7527113     0.3931109    -0.8448132
C          -0.3902868     0.9552533    -0.4404989
C          -1.1289279     0.5134576     0.6588247
C          -0.6465297    -0.5816779     1.3721765
C           0.5442333    -1.1781970     0.9601347
C           1.2189856    -0.6593462    -0.1518320
C           2.5334274    -1.2492693    -0.6339289
C           5.9248514     1.2378650     0.4181936
C           5.3060456     0.4458294     1.3880655
C           4.2192941    -0.3579014     1.0451206
C           3.7343786    -0.3897859    -0.2693442
C           4.3577661     0.4129301    -1.2309643
C           5.4461479     1.2192083    -0.8921545
H          -0.7365244     1.8037959    -1.0293374
H          -2.0522791     1.0114861     0.9389954
H          -1.1875961    -0.9680119     2.2321438
H           0.9458326    -2.0381903     1.4889546
H           2.6550747    -2.2534999    -0.2097163
H           2.4812333    -1.3568524    -1.7222499
H           6.7730699     1.8636827     0.6827995
H           5.6707683     0.4529813     2.4121205
H           3.7424956    -0.9706545     1.8074323
H           3.9834495     0.4085521    -2.2514234
H           5.9191347     1.8334288    -1.6541306
24
008_C12H11N_5-6-10-9 (90,) energy =    -518.6543822
N           0.7413479     0.2705204    -0.9632368
C          -0.4047077     0.8682402    -0.6207612
C          -1.1268357     0.5602507     0.5329521
C          -0.6229362    -0.4299144     1.3744922
C           0.5710217    -1.0601390     1.0293174
C           1.2270018    -0.6802744    -0.1482586
C           2.5467778    -1.3089273    -0.5640820
C           5.9072651     1.2349683     0.4440050
C           5.4653926     0.2668250     1.3471770
C           4.3896255    -0.5584762     1.0165493
C           3.7426905    -0.4346853    -0.2192445
C           4.1898684     0.5446274    -1.1152063
C           5.2648734     1.3717853    -0.7881023
H          -0.7663178     1.6318200    -1.3082917
H          -2.0540472     1.0786050     0.7580097
H          -1.1507252    -0.7093178     2.2827201
H           0.9908341    -1.8386131     1.6602885
H           2.6534165    -2.2859621    -0.0785304
H           2.5147928    -1.4780076    -1.6452994
H           6.7468666     1.8767633     0.6976515
H           5.9592461     0.1512439     2.3086826
H           4.0535032    -1.3134235     1.7245221
H           3.6830589     0.6615944    -2.0692212
H           5.6015781     2.1236238    -1.4973633
24
008_C12H11N_5-6-10-9 (105,) energy =    -518.6548316
N           0.6920680     0.1151621    -1.0726972
C          -0.4629161     0.7297424    -0.7919883
C          -1.1574550     0.5674949     0.4065213
C          -0.6131801    -0.2839317     1.3673464
C           0.5901789    -0.9274983     1.0889670
C           1.2152998    -0.7024615    -0.1444541
C           2.5436526    -1.3532696    -0.4908999
C           5.9080956     1.2034849     0.4695946
C           5.6211679     0.0954966     1.2670104
C           4.5402632    -0.7311738     0.9528000
C           3.7353136    -0.4660143    -0.1608885
C           4.0292394     0.6523330    -0.9537168
C           5.1075466     1.4795100    -0.6417372
H          -0.8543501     1.3830014    -1.5706807
H          -2.0940744     1.0899293     0.5764003
H          -1.1177513    -0.4455827     2.3164245
H           1.0435692    -1.5970694     1.8145427
H           2.6381238    -2.3039494     0.0462129
H           2.5353393    -1.5772821    -1.5627599
H           6.7502524     1.8469427     0.7102581
H           6.2385269    -0.1289739     2.1331725
H           4.3253751    -1.5968390     1.5761642
H           3.3979107     0.8744083    -1.8097728
H           5.3244946     2.3410922    -1.2681388
24
008_C12H11N_5-6-10-9 (120,) energy =    -518.6549410
N           0.6626289     0.0055673    -1.1364672
C          -0.5045301     0.6246427    -0.9205079
C          -1.1993481     0.5725421     0.2871631
C          -0.6417504    -0.1643706     1.3317963
C           0.5740116    -0.8095467     1.1215280
C           1.1981858    -0.7032442    -0.1287588
C           2.5355502    -1.3675663    -0.4006876
C           5.9368699     1.1822978     0.4543699
C           5.7797131    -0.0269044     1.1310871
C           4.6812198    -0.8452939     0.8570289
C           3.7269561    -0.4690959    -0.0946197
C           3.8946031     0.7483418    -0.7703957
C           4.9896498     1.5670842    -0.4983331
H          -0.9051880     1.1878593    -1.7622224
H          -2.1463682     1.0913682     0.4012555
H          -1.1454816    -0.2364490     2.2922788
H           1.0396901    -1.3900510     1.9130354
H           2.6179183    -2.2875544     0.1890639
H           2.5525255    -1.6525397    -1.4587087
H           6.7910355     1.8203775     0.6651914
H           6.5111767    -0.3367943     1.8731719
H           4.5671099    -1.7889223     1.3866883
H           3.1546090     1.0493190    -1.5069829
H           5.1052213     2.5072072    -1.0318945
24
008_C12H11N_5-6-10-9 (135,) energy =    -518.6545234
N           0.6502126    -0.0900864    -1.1812820
C          -0.5294431     0.5272843    -1.0370177
C          -1.2389362     0.5753518     0.1619344
C          -0.6830617    -0.0515803     1.2772133
C           0.5449940    -0.6930520     1.1420205
C           1.1832483    -0.6944213    -0.1062412
C           2.5280827    -1.3679683    -0.2978887
C           5.9790063     1.1586621     0.4298397
C           5.9224234    -0.1288429     0.9634671
C           4.8024117    -0.9315915     0.7370644
C           3.7238436    -0.4630077    -0.0224890
C           3.7932320     0.8300448    -0.5599894
C           4.9103448     1.6337503    -0.3340653
H          -0.9271941     1.0039003    -1.9319038
H          -2.1955047     1.0863046     0.2164243
H          -1.1979101    -0.0422247     2.2344360
H           1.0098878    -1.1892891     1.9893714
H           2.5938541    -2.2515700     0.3472589
H           2.5720898    -1.7199915    -1.3356933
H           6.8484990     1.7866038     0.6055015
H           6.7482000    -0.5106423     1.5585286
H           4.7657942    -1.9349008     1.1567136
H           2.9672307     1.2000497    -1.1607170
H           4.9469727     2.6343446    -0.7575354
24
008_C12H11N_5-6-10-9 (150,) energy =    -518.6537508
N           0.6155709    -0.2590246    -1.2366765
C          -0.5745487     0.3511933    -1.1592979
C          -1.2667070     0.5550183     0.0332648
C          -0.6823734     0.1008667     1.2160888
C           0.5556628    -0.5316568     1.1505766
C           1.1748399    -0.6976270    -0.0969201
C           2.5253104    -1.3735291    -0.2153599
C           6.0039479     1.1399764     0.4402692
C           6.0320361    -0.2142418     0.7772626
C           4.9009708    -1.0069112     0.5792159
C           3.7240751    -0.4665154     0.0443156
C           3.7103956     0.8918221    -0.2977982
C           4.8393247     1.6883174    -0.0992315
H          -0.9946714     0.6907595    -2.1050078
H          -2.2321120     1.0521583     0.0324009
H          -1.1832899     0.2358467     2.1712303
H           1.0435277    -0.8956826     2.0505612
H           2.5700869    -2.2254869     0.4737816
H           2.5974987    -1.7799594    -1.2318996
H           6.8817335     1.7615751     0.5958699
H           6.9328023    -0.6542704     1.1977596
H           4.9301801    -2.0612928     0.8467854
H           2.8137532     1.3255357    -0.7302636
H           4.8076524     2.7409245    -0.3691276
24
008_C12H11N_5-6-10-9 (165,) energy =    -518.6529619
N           0.6387528    -0.4097476    -1.2603933
C          -0.5572855     0.1930902    -1.2658912
C          -1.2639231     0.5276383    -0.1116050
C          -0.6889294     0.2180623     1.1212659
C           0.5544276    -0.4074970     1.1413256
C           1.1891505    -0.7096950    -0.0724036
C           2.5417021    -1.3888077    -0.0997532
C           6.0383624     1.1288323     0.4457193
C           6.1244611    -0.2583023     0.5859986
C           4.9881772    -1.0488970     0.4222110
C           3.7451030    -0.4753365     0.1172868
C           3.6726572     0.9146016    -0.0283674
C           4.8091674     1.7102371     0.1368873
H          -0.9702570     0.4167674    -2.2485667
H          -2.2330789     1.0127570    -0.1794252
H          -1.2012090     0.4574743     2.0495163
H           1.0347101    -0.6621898     2.0820959
H           2.5653240    -2.1858020     0.6547693
H           2.6380334    -1.8760251    -1.0776520
H           6.9216778     1.7485395     0.5751860
H           7.0766550    -0.7248612     0.8256788
H           5.0636291    -2.1287507     0.5351340
H           2.7249385     1.3809826    -0.2792485
H           4.7301408     2.7882608     0.0211340
24
008_C12H11N_5-6-10-9 (180,) energy =    -518.6524364
N           0.6997037    -0.4334690    -1.2185732
C          -0.4882325     0.1755783    -1.3132921
C          -1.2613936     0.5465824    -0.2131070
C          -0.7656744     0.2658417     1.0596482
C           0.4693044    -0.3683293     1.1724794
C           1.1750793    -0.7045221     0.0085799
C           2.5217789    -1.3904511     0.0773958
C           6.0463552     1.1350646     0.3487590
C           6.1573856    -0.2577305     0.3292506
C           5.0134160    -1.0482735     0.2426630
C           3.7366660    -0.4701179     0.1757226
C           3.6383312     0.9248412     0.1917005
C           4.7837973     1.7211840     0.2784704
H          -0.8398804     0.3740565    -2.3248668
H          -2.2205896     1.0360494    -0.3529920
H          -1.3318505     0.5325698     1.9482926
H           0.8874501    -0.6033360     2.1474417
H           2.5335828    -2.0778715     0.9340655
H           2.6218603    -2.0076644    -0.8231187
H           6.9365498     1.7548105     0.4157899
H           7.1360549    -0.7282433     0.3805109