17
330_C7H8FN_0-4-12-10 (-165,) energy =    -426.1432970
C           1.6941644    -1.5580049    -0.5369187
H           2.0288138    -1.5950698    -1.5803761
H           0.6107921    -1.7018337    -0.5331358
H           2.1616059    -2.3995620     0.0003502
N           1.9912016    -0.2657900     0.0471557
H           1.3443541     0.0597080     0.7514204
C           5.8982613     1.1749123     0.7163049
H           6.8943321     1.5688787     0.8918998
C           4.7922308     1.7637115     1.3419923
H           4.8933131     2.6123455     2.0112287
C           3.5343020     1.2489419     1.1027507
F           2.4481713     1.8012034     1.7136919
C           3.2963875     0.1496477     0.2569727
C           4.4209422    -0.4323827    -0.3510724
H           4.2927095    -1.2872583    -1.0067122
C           5.7012286     0.0812216    -0.1239964
H           6.5508866    -0.3887027    -0.6117905
17
330_C7H8FN_0-4-12-10 (-150,) energy =    -426.1428020
C           1.7017556    -1.5552608    -0.4345698
H           2.0529284    -1.7586785    -1.4522959
H           0.6173129    -1.6921062    -0.4312527
H           2.1552373    -2.3002420     0.2388110
N           1.9949860    -0.1819277    -0.0546697
H           1.3545271     0.1972527     0.6307142
C           5.9209235     1.1494594     0.7538976
H           6.9218190     1.5120393     0.9661553
C           4.8185514     1.7187324     1.4014625
H           4.9269689     2.5181628     2.1276534
C           3.5541754     1.2406647     1.1172630
F           2.4720688     1.7735483     1.7526028
C           3.3071120     0.2103596     0.1930299
C           4.4292721    -0.3557906    -0.4332696
H           4.2918882    -1.1628169    -1.1456360
C           5.7156745     0.1142165    -0.1567732
H           6.5633638    -0.3409152    -0.6616078
17
330_C7H8FN_0-4-12-10 (-135,) energy =    -426.1414342
C           1.6686927    -1.5635560    -0.3189591
H           2.1257757    -1.9514217    -1.2346123
H           0.5863209    -1.6797211    -0.4224456
H           2.0139439    -2.1817636     0.5250590
N           1.9671059    -0.1426644    -0.1582331
H           1.3196524     0.3053038     0.4798590
C           5.8893841     1.1319550     0.7842926
H           6.8891911     1.4762626     1.0299452
C           4.7839284     1.6619251     1.4563591
H           4.8875620     2.4104792     2.2355168
C           3.5200931     1.2036449     1.1310963
F           2.4368712     1.7017713     1.7914682
C           3.2797370     0.2443128     0.1338960
C           4.4063338    -0.2800215    -0.5193520
H           4.2698968    -1.0296871    -1.2925606
C           5.6912023     0.1607178    -0.1975091
H           6.5429128    -0.2605922    -0.7243062
17
330_C7H8FN_0-4-12-10 (-120,) energy =    -426.1398227
C           1.6663985    -1.5937078    -0.2479670
H           2.2766639    -2.1390366    -0.9733647
H           0.6178194    -1.7406564    -0.5231296
H           1.8389261    -2.0366780     0.7460700
N           1.9683614    -0.1605166    -0.3104331
H           1.2943124     0.3593310     0.2425804
C           5.8528490     1.1054345     0.8096303
H           6.8438123     1.4424346     1.0982075
C           4.7304273     1.5783833     1.4934991
H           4.8120833     2.2735131     2.3231082
C           3.4768840     1.1275967     1.1136814
F           2.3786667     1.5738499     1.7839192
C           3.2695538     0.2410204     0.0468423
C           4.4131583    -0.2192275    -0.6231757
H           4.2908638    -0.9030817    -1.4580668
C           5.6870552     0.2045550    -0.2443090
H           6.5541149    -0.1658376    -0.7840036
17
330_C7H8FN_0-4-12-10 (-105,) energy =    -426.1381607
C           1.6707963    -1.5687789    -0.1414740
H           2.3537684    -2.2295209    -0.6831756
H           0.6563239    -1.7698591    -0.4995275
H           1.7266726    -1.8235452     0.9292536
N           2.0040493    -0.1673103    -0.4317084
H           1.3166296     0.4310336     0.0187288
C           5.8636257     1.0711709     0.8131782
H           6.8502305     1.3939963     1.1320644
C           4.7341829     1.4917967     1.5179773
H           4.8065600     2.1319331     2.3915370
C           3.4855965     1.0580372     1.0980384
F           2.3811476     1.4537162     1.7855660
C           3.2971385     0.2474214    -0.0287437
C           4.4468969    -0.1588451    -0.7198907
H           4.3261020    -0.7825828    -1.6011852
C           5.7154968     0.2423485    -0.3016873
H           6.5907078    -0.0827063    -0.8569964
17
330_C7H8FN_0-4-12-10 (-90,) energy =    -426.1365055
C           1.6540409    -1.5431474    -0.0403925
H           2.3549642    -2.2942100    -0.4170779
H           0.6583368    -1.7873811    -0.4240189
H           1.6370376    -1.6103935     1.0591829
N           2.0424128    -0.2158955    -0.5459358
H           1.3453868     0.4545024    -0.2280309
C           5.8559455     1.0490741     0.8218645
H           6.8313777     1.3744968     1.1716076
C           4.7118636     1.3944956     1.5441230
H           4.7629578     1.9772901     2.4583543
C           3.4778157     0.9595503     1.0827465
F           2.3594135     1.2794334     1.7834657
C           3.3218963     0.2228490    -0.0975341
C           4.4845126    -0.1093834    -0.8025407
H           4.3782964    -0.6781037    -1.7219937
C           5.7407379     0.2933789    -0.3472387
H           6.6293563     0.0277524    -0.9126317
17
330_C7H8FN_0-4-12-10 (-75,) energy =    -426.1369839
C           1.3344055    -1.1896543    -0.0386702
H           1.9127931    -2.1268784    -0.0758589
H           0.3598741    -1.3573180    -0.5073554
H           1.1650186    -0.9294230     1.0091096
N           1.9950196    -0.0632687    -0.7132767
H           2.0491065    -0.2553015    -1.7104465
C           5.7993679     1.1773897     0.6876468
H           6.7636805     1.5221358     1.0487918
C           4.6525645     1.3870622     1.4588160
H           4.6903767     1.8982149     2.4155743
C           3.4261540     0.9544949     0.9801314
F           2.3184828     1.1731242     1.7262537
C           3.2848387     0.2748962    -0.2400584
C           4.4507705     0.0778254    -0.9930987
H           4.3726877    -0.4342417    -1.9501347
C           5.6935811     0.5277237    -0.5415665
H           6.5777268     0.3619583    -1.1505402
17
330_C7H8FN_0-4-12-10 (-60,) energy =    -426.1386235
C           1.2753636    -1.1304042     0.0102531
H           1.7985448    -2.0872591     0.1693190
H           0.3417638    -1.3264652    -0.5252521
H           1.0267214    -0.7072023     0.9841540
N           2.0591711    -0.1605193    -0.7629444
H           2.1504169    -0.4691844    -1.7258958
C           5.8077189     1.1925792     0.6847423
H           6.7608103     1.5566423     1.0559581
C           4.6591070     1.3169855     1.4703130
H           4.6823385     1.7820677     2.4508321
C           3.4452903     0.8604368     0.9825089
F           2.3376169     1.0245260     1.7489325
C           3.3146572     0.2353540    -0.2692006
C           4.4855893     0.1232826    -1.0367106
H           4.4219966    -0.3503671    -2.0144566
C           5.7122119     0.6016133    -0.5748559
H           6.5950438     0.4987637    -1.1994926
17
330_C7H8FN_0-4-12-10 (-45,) energy =    -426.1390220
C           1.1944510    -1.0401377     0.0034676
H           1.6689478    -1.9305675     0.4464124
H           0.3694153    -1.3679775    -0.6350851
H           0.7826431    -0.4345025     0.8103185
N           2.1111620    -0.2444562    -0.8152340
H           2.2401352    -0.6556126    -1.7325029
C           5.8089833     1.2183192     0.6566671
H           6.7530309     1.6027131     1.0300227
C           4.6661340     1.2700737     1.4565929
H           4.6832905     1.6968467     2.4545785
C           3.4618517     0.7854028     0.9704915
F           2.3635995     0.8907944     1.7645465
C           3.3327511     0.2067269    -0.3041404
C           4.5014180     0.1674967    -1.0873740
H           4.4437888    -0.2713891    -2.0816866
C           5.7149044     0.6711606    -0.6233508
H           6.5913035     0.6216974    -1.2634392
17
330_C7H8FN_0-4-12-10 (-30,) energy =    -426.1388673
C           1.1835534    -1.0479336     0.0907492
H           1.5882059    -1.8579143     0.7173071
H           0.4290480    -1.4722122    -0.5773877
H           0.6938391    -0.3246702     0.7432429
N           2.1952747    -0.3976520    -0.7381604
H           2.3397619    -0.8733089    -1.6193461
C           5.8402750     1.2225388     0.6960884
H           6.7734383     1.6436759     1.0565861
C           4.7267432     1.1639084     1.5344833
H           4.7561852     1.5349161     2.5543167
C           3.5350819     0.6288829     1.0690560
F           2.4701228     0.6191170     1.9166772
C           3.3873036     0.1163792    -0.2319912
C           4.5290613     0.1888083    -1.0554205
H           4.4570162    -0.1954819    -2.0711500
C           5.7284595     0.7346588    -0.6069756
H           6.5808056     0.7689356    -1.2798269
17
330_C7H8FN_0-4-12-10 (-15,) energy =    -426.1383459
C           1.1230715    -0.9838011     0.0667792
H           1.3981348    -1.7507871     0.8060166
H           0.3891606    -1.4140789    -0.6202913
H           0.6491661    -0.1558066     0.5963781
N           2.2479307    -0.5132722    -0.7290489
H           2.4079477    -1.0405902    -1.5755376
C           5.8207738     1.2696806     0.6859578
H           6.7374128     1.7307655     1.0397162
C           4.7236488     1.1444782     1.5380710
H           4.7507974     1.4971515     2.5645072
C           3.5537516     0.5537529     1.0845427
F           2.5112730     0.4634527     1.9571952
C           3.4063230     0.0630563    -0.2256505
C           4.5331385     0.2024338    -1.0633738
H           4.4619124    -0.1637803    -2.0857506
C           5.7130307     0.7927189    -0.6218307
H           6.5525035     0.8766884    -1.3064900
17
330_C7H8FN_0-4-12-10 (0,) energy =    -426.1376552
C           1.0394824    -0.9054130    -0.0834400
H           0.6605700    -0.2847517     0.7327836
H           0.4498389    -1.8259260    -0.1119425
H           0.8790768    -0.3635816    -1.0258018
N           2.4253276    -1.2759533     0.1393972
H           2.6748934    -2.2269352    -0.0820728
C           5.7708272     1.2327732     0.7886833
H           6.6334685     1.8684868     0.9610318
C           4.5072426     1.7928923     0.5970083
H           4.3500663     2.8671321     0.6056839
C           3.4098382     0.9759612     0.3739782
F           2.2007459     1.5748695     0.1799086
C           3.4969993    -0.4288484     0.3460966
C           4.7869072    -0.9672536     0.5416528
H           4.9016327    -2.0494482     0.5310485
C           5.8975853    -0.1570683     0.7564821
H           6.8694194    -0.6209105     0.9010690
17
330_C7H8FN_0-4-12-10 (15,) energy =    -426.1383459
C           1.0944808    -0.8566495    -0.1057715
H           0.6545420    -0.1691931     0.6184480
H           0.4721430    -1.7549640    -0.1452259
H           1.0710128    -0.3742254    -1.0942631
N           2.4288537    -1.2637057     0.3111247
H           2.6858766    -2.1986150     0.0281106
C           5.8372509     1.2101491     0.7685609
H           6.7143508     1.8373905     0.8919939
C           4.5727021     1.7868042     0.6509119
H           4.4274996     2.8623888     0.6777633
C           3.4533574     0.9836377     0.4918670
F           2.2424148     1.5995929     0.3886404
C           3.5237286    -0.4206320     0.4449623
C           4.8159132    -0.9744876     0.5650579
H           4.9156481    -2.0577899     0.5342425
C           5.9474617    -0.1810234     0.7249179
H           6.9203923    -0.6565381     0.8133243
17
330_C7H8FN_0-4-12-10 (30,) energy =    -426.1388673
C           1.1369720    -0.8455385    -0.1858753
H           0.6376288    -0.0803354     0.4089343
H           0.4915913    -1.7275670    -0.2206145
H           1.2562296    -0.4612872    -1.2108219
N           2.3988847    -1.2429111     0.4331635
H           2.6570132    -2.1957717     0.2117130
C           5.8461508     1.2073294     0.7173929
H           6.7312021     1.8304633     0.7979982
C           4.5796072     1.7903005     0.6693513
H           4.4410330     2.8660872     0.7146686
C           3.4509588     0.9907349     0.5704582
F           2.2369471     1.6060513     0.5544554
C           3.5154456    -0.4121891     0.5006883
C           4.8080282    -0.9721830     0.5509861
H           4.9025852    -2.0553247     0.5016041
C           5.9496355    -0.1836601     0.6631286
H           6.9243094    -0.6623277     0.6989856
17
330_C7H8FN_0-4-12-10 (45,) energy =    -426.1390217
C           1.1682052    -0.9224003    -0.1556972
H           0.6901996    -0.0396817     0.2682455
H           0.4640661    -1.7568727    -0.0943344
H           1.3828946    -0.7234134    -1.2180061
N           2.3596922    -1.2784041     0.6171769
H           2.6211627    -2.2463641     0.4697505
C           5.8239976     1.1641672     0.7316508
H           6.7108305     1.7889190     0.7717091
C           4.5555332     1.7424574     0.8041808
H           4.4189193     2.8141201     0.9104102
C           3.4275940     0.9378509     0.7611291
F           2.2120909     1.5355251     0.8754358
C           3.4936419    -0.4590714     0.6181238
C           4.7851375    -1.0137140     0.5466585
H           4.8804359    -2.0923882     0.4371400
C           5.9298286    -0.2218640     0.6117262
H           6.9068980    -0.6933519     0.5546967
17
330_C7H8FN_0-4-12-10 (60,) energy =    -426.1386235
C           1.2298347    -0.9326894    -0.2599439
H           0.8424993     0.0726902    -0.0908594
H           0.4195450    -1.6454375    -0.0804037
H           1.5432827    -1.0128232    -1.3134720
N           2.3117460    -1.2104584     0.6914673
H           2.5637682    -2.1935302     0.6609360
C           5.8125494     1.1817634     0.7000231
H           6.7052145     1.7994043     0.7199481
C           4.5535164     1.7696267     0.8454721
H           4.4328898     2.8385022     0.9911174
C           3.4211875     0.9712727     0.8310408
F           2.2121754     1.5608428     1.0098472
C           3.4730362    -0.4196874     0.6383790
C           4.7514992    -0.9831396     0.4942464
H           4.8314043    -2.0587050     0.3488044
C           5.9053989    -0.1997667     0.5335912
H           6.8765635    -0.6733862     0.4210653
17
330_C7H8FN_0-4-12-10 (75,) energy =    -426.1369839
C           1.2879312    -0.9881048    -0.3141905
H           0.9340070     0.0455917    -0.3357369
H           0.4280728    -1.6360218    -0.1184009
H           1.7013068    -1.2356471    -1.3052227
N           2.2546937    -1.1427404     0.7820468
H           2.4974067    -2.1255867     0.8782608
C           5.8014359     1.1781275     0.6868741
H           6.7039817     1.7819317     0.6892021
C           4.5611024     1.7807360     0.9154816
H           4.4672041     2.8448594     1.1076208
C           3.4184914     0.9967036     0.9235823
F           2.2227821     1.5851607     1.1590350
C           3.4442598    -0.3844085     0.6734670
C           4.7009931    -0.9629365     0.4471230
H           4.7560733    -2.0340850     0.2631804
C           5.8682090    -0.1959116     0.4593270
H           6.8270071    -0.6752855     0.2834041
17
330_C7H8FN_0-4-12-10 (90,) energy =    -426.1365055
C           1.5387025    -1.0537772    -0.7141316
H           1.2670897    -0.0542196    -1.0896159
H           0.6271759    -1.6507639    -0.6093840
H           2.1753461    -1.5372223    -1.4612903
N           2.2384738    -1.0290872     0.5811340
H           1.6056411    -0.6261009     1.2692231
C           5.8052936     1.2703958     0.5161240
H           6.7179470     1.8590644     0.5012670
C           4.6003198     1.8721590     0.8846553
H           4.5401755     2.9221832     1.1528160
C           3.4461494     1.1022216     0.8872473
F           2.2665383     1.6797078     1.2324759
C           3.4398286    -0.2626954     0.5756984
C           4.6609158    -0.8411062     0.2103559
H           4.6714825    -1.9002541    -0.0309157
C           5.8325742    -0.0837705     0.1745991
H           6.7698975    -0.5544020    -0.1078900
17
330_C7H8FN_0-4-12-10 (105,) energy =    -426.1381607
C           1.5731628    -1.1536054    -0.7126250
H           1.3478497    -0.2304171    -1.2706976
H           0.6448403    -1.7156713    -0.5708799
H           2.2437724    -1.7641888    -1.3241342
N           2.1840266    -0.9129946     0.6020485
H           1.5193532    -0.4085125     1.1827077
C           5.8181591     1.2707470     0.5374886
H           6.7479823     1.8316420     0.5266033
C           4.6432733     1.8831486     0.9778401
H           4.6218605     2.9174202     1.3063893
C           3.4661059     1.1498543     0.9728498
F           2.3150711     1.7420397     1.3893759
C           3.4046953    -0.1945795     0.5842998
C           4.5984019    -0.7863135     0.1488666
H           4.5775995    -1.8302173    -0.1513878
C           5.7899491    -0.0620581     0.1195656
H           6.7025625    -0.5448423    -0.2181917
17
330_C7H8FN_0-4-12-10 (120,) energy =    -426.1398227
C           1.5885854    -1.2616487    -0.7042004
H           1.4620767    -0.4525866    -1.4414332
H           0.6178060    -1.7343766    -0.5282951
H           2.2487545    -2.0172945    -1.1391542
N           2.1238586    -0.8035398     0.5813902
H           1.4365935    -0.2269919     1.0564348
C           5.8141350     1.2768897     0.5728245
H           6.7571842     1.8148587     0.5829062
C           4.6590814     1.8880012     1.0663642
H           4.6652402     2.9007765     1.4567138
C           3.4654819     1.1857329     1.0350580
F           2.3324287     1.7793211     1.5022687
C           3.3603482    -0.1306924     0.5627019
C           4.5347401    -0.7213531     0.0722859
H           4.4924927    -1.7418962    -0.2969876
C           5.7437704    -0.0255176     0.0741811
H           6.6377628    -0.5098711    -0.3084848
17
330_C7H8FN_0-4-12-10 (135,) energy =    -426.1414342
C           1.6114438    -1.3175907    -0.6562094
H           1.6561545    -0.6777263    -1.5519324
H           0.5749560    -1.6257589    -0.4935526
H           2.1919827    -2.2236865    -0.8555837
N           2.0916957    -0.6561674     0.5544503
H           1.3994947    -0.0195697     0.9321205
C           5.8591558     1.2678253     0.5966990
H           6.8214262     1.7696202     0.6239857
C           4.7322195     1.8892627     1.1429656
H           4.7793291     2.8760094     1.5927115
C           3.5153967     1.2337013     1.0912489
F           2.4073097     1.8374273     1.6062736
C           3.3513132    -0.0469084     0.5384237
C           4.4953017    -0.6455796    -0.0127219
H           4.4151512    -1.6324173    -0.4579099
C           5.7302842     0.0044502     0.0189573
H           6.5984483    -0.4869633    -0.4114286
17
330_C7H8FN_0-4-12-10 (150,) energy =    -426.1428021
C           1.6701291    -1.4169497    -0.6223905
H           1.8345402    -0.9593767    -1.6112261
H           0.6050242    -1.6344808    -0.5081312
H           2.2027446    -2.3740994    -0.5980372
N           2.0890390    -0.5676731     0.4819889
H           1.3820883     0.0923706     0.7791446
C           5.8990480     1.2502283     0.6148557
H           6.8726507     1.7272051     0.6685925
C           4.7870101     1.8624765     1.2039611
H           4.8583582     2.8172198     1.7154172
C           3.5573871     1.2385763     1.1219054
F           2.4618689     1.8310167     1.6763239
C           3.3590493     0.0016311     0.4836108
C           4.4859685    -0.5866455    -0.1130854
H           4.3826006    -1.5356401    -0.6291700
C           5.7371593     0.0309719    -0.0412520
H           6.5911907    -0.4518229    -0.5082709
17
330_C7H8FN_0-4-12-10 (165,) energy =    -426.1432970
C           1.6849652    -1.5156852    -0.5944309
H           1.8793668    -1.2145032    -1.6369688
H           0.6192272    -1.7333290    -0.4883984
H           2.2329454    -2.4458797    -0.4031335
N           2.0487780    -0.5022371     0.3750582
H           1.3226277     0.1563190     0.6187279
C           5.8887283     1.2196613     0.6546319
H           6.8708455     1.6720726     0.7493455
C           4.7808343     1.8166345     1.2691595
H           4.8657477     2.7331698     1.8445091
C           3.5416589     1.2232939     1.1386606
F           2.4501965     1.7977873     1.7188293
C           3.3241533     0.0385420     0.4110493
C           4.4469592    -0.5368043    -0.2065394
H           4.3322170    -1.4469485    -0.7858347
C           5.7101310     0.0483892    -0.0783875
H           6.5600068    -0.4225288    -0.5648334
17
330_C7H8FN_0-4-12-10 (180,) energy =    -426.1427083
C           1.6537303    -1.5644120    -0.5799049
H           1.9107583    -1.4402256    -1.6424015
H           0.5751948    -1.7246441    -0.5104394
H           2.1561509    -2.4726910    -0.2150751
N           2.0008807    -0.4024533     0.2003798
H           1.2772089     0.0969410     0.6899767
C           5.8637420     1.1953977     0.6892546
H           6.8520718     1.6222783     0.8272403
C           4.7530279     1.7846126     1.3072653
H           4.8438207     2.6685796     1.9308544
C           3.5055186     1.2269001     1.1193388
F           2.4117030     1.7861339     1.7128433
C           3.2809574     0.0820619     0.3303312
C           4.4089535    -0.4935868    -0.2808083
H           4.2892518    -1.3772583    -0.8991162
C           5.6789273     0.0613589    -0.0989230
H           6.5311671    -0.4064776    -0.5844711
