15
317_C5H8N2_0-4-10-9 (-165,) energy =    -304.8496264
C           1.1331909    -0.2713285    -0.3196560
H           0.9529010    -0.1776808     0.7590307
H           0.3140818    -0.8712968    -0.7282792
H           1.0688969     0.7281509    -0.7654103
C           2.4832257    -0.9357224    -0.6152684
H           2.6011869    -1.0887018    -1.6937233
H           2.4982942    -1.9399382    -0.1689147
C           5.6976831     0.5056598     0.2083967
H           6.7724148     0.5431364     0.0896896
N           4.9299767    -0.3872510    -0.5061869
C           3.6829418    -0.1696380    -0.1327211
N           3.6235370     0.8331760     0.8007679
H           2.7876607     1.1944350     1.2355454
C           4.9130032     1.2763963     1.0266967
H           5.1323736     2.0765229     1.7175021
15
317_C5H8N2_0-4-10-9 (-150,) energy =    -304.8499705
C           1.0976684    -0.2387684    -0.4117512
H           0.8713169    -0.0021982     0.6360556
H           0.2770403    -0.8632919    -0.7793616
H           1.0900916     0.6983501    -0.9792693
C           2.4376615    -0.9728501    -0.5579189
H           2.6051952    -1.2578385    -1.6012834
H           2.3958639    -1.9141613     0.0098792
C           5.6451718     0.5623341     0.1006660
H           6.7015743     0.6654041    -0.1085618
N           4.8538772    -0.3013854    -0.6249167
C           3.6382246    -0.1818692    -0.1252893
N           3.6219192     0.7289375     0.9004773
H           2.8151000     1.0085278     1.4383564
C           4.9062095     1.2165878     1.0518460
H           5.1532221     1.9642501     1.7905604
15
317_C5H8N2_0-4-10-9 (-135,) energy =    -304.8503199
C           1.1070084    -0.2060492    -0.4983871
H           0.8473037     0.1713236     0.4989363
H           0.2802796    -0.8461052    -0.8242763
H           1.1616541     0.6521243    -1.1766589
C           2.4271220    -0.9927265    -0.4903224
H           2.6399429    -1.3899396    -1.4870937
H           2.3241927    -1.8636058     0.1741597
C           5.6083519     0.6483520     0.0266699
H           6.6359390     0.8261804    -0.2609090
N           4.7984946    -0.1988443    -0.6987517
C           3.6275182    -0.1871487    -0.0902223
N           3.6574040     0.6387847     1.0054130
H           2.8911813     0.8254934     1.6354062
C           4.9254050     1.1821740     1.0883107
H           5.2018453     1.8785757     1.8657427
15
317_C5H8N2_0-4-10-9 (-120,) energy =    -304.8505586
C           1.1241630    -0.1774845    -0.5832268
H           0.8427402     0.3224858     0.3518588
H           0.2859884    -0.8187842    -0.8768596
H           1.2487946     0.5949579    -1.3492889
C           2.4109209    -1.0058589    -0.4244005
H           2.6543454    -1.5077025    -1.3651982
H           2.2444804    -1.7970384     0.3212316
C           5.5569810     0.7377185    -0.0407728
H           6.5460515     0.9902702    -0.3987438
N           4.7280001    -0.0975160    -0.7587572
C           3.6169167    -0.1961516    -0.0536080
N           3.7039166     0.5485384     1.0963446
H           2.9901895     0.6409298     1.8043627
C           4.9465688     1.1529086     1.1140130
H           5.2600213     1.7986185     1.9206416
15
317_C5H8N2_0-4-10-9 (-105,) energy =    -304.8506388
C           1.1455683    -0.1566104    -0.6678677
H           0.8489023     0.4537581     0.1935179
H           0.2948143    -0.7934405    -0.9346883
H           1.3431327     0.5208161    -1.5049164
C           2.3882839    -1.0107734    -0.3562734
H           2.6496073    -1.6172639    -1.2282736
H           2.1584852    -1.7091098     0.4608949
C           5.4940205     0.8245003    -0.0937255
H           6.4369029     1.1506709    -0.5118493
N           4.6417923     0.0050777    -0.8023150
C           3.6032148    -0.2021390    -0.0147954
N           3.7582430     0.4592623     1.1780840
H           3.1102645     0.4555616     1.9524291
C           4.9709501     1.1204449     1.1382760
H           5.3306711     1.7114627     1.9671689
15
317_C5H8N2_0-4-10-9 (-90,) energy =    -304.8506371
C           1.1628739    -0.1508768    -0.7615913
H           0.8562282     0.5621275     0.0126100
H           0.3003247    -0.7834310    -0.9997690
H           1.4297540     0.4198168    -1.6565961
C           2.3555150    -1.0067175    -0.2960100
H           2.6255135    -1.7167319    -1.0839342
H           2.0665116    -1.5995973     0.5825310
C           5.4181476     0.9096325    -0.1367533
H           6.3089823     1.3079454    -0.6037890
N           4.5343369     0.1191667    -0.8387789
C           3.5788908    -0.1980372     0.0147269
N           3.8173207     0.3655778     1.2430065
H           3.2431091     0.2649812     2.0674680
C           4.9985183     1.0774375     1.1576896
H           5.4131170     1.6068754     2.0023478
15
317_C5H8N2_0-4-10-9 (-75,) energy =    -304.8506109
C           1.1857767    -0.1506644    -0.8583583
H           0.8530210     0.6442130    -0.1811622
H           0.3238084    -0.7877817    -1.0863581
H           1.5260159     0.3181662    -1.7865546
C           2.3248391    -0.9753828    -0.2329839
H           2.6007357    -1.7874244    -0.9148924
H           1.9791175    -1.4475843     0.6962261
C           5.3486377     1.0070648    -0.1632645
H           6.1842828     1.4736283    -0.6677351
N           4.4184258     0.2650583    -0.8573388
C           3.5529635    -0.1601044     0.0438955
N           3.8948845     0.2860278     1.2949358
H           3.3968213     0.0947431     2.1521977
C           5.0484671     1.0369942     1.1744705
H           5.5302459     1.4923617     2.0265435
15
317_C5H8N2_0-4-10-9 (-60,) energy =    -304.8506464
C           1.1984919    -0.1775423    -0.9553775
H           0.8418976     0.6932342    -0.3940306
H           0.3398984    -0.8243699    -1.1675639
H           1.6099205     0.1794419    -1.9037936
C           2.2756548    -0.9407588    -0.1679974
H           2.5580423    -1.8433466    -0.7246465
H           1.8695145    -1.2833012     0.7929709
C           5.2767496     1.0793715    -0.1746537
H           6.0581701     1.6086971    -0.7035232
N           4.2824569     0.4089767    -0.8524393
C           3.5070740    -0.1182179     0.0763987
N           3.9693782     0.1921633     1.3291315
H           3.5539356    -0.0937896     2.2038776
C           5.1076486     0.9614371     1.1811171
H           5.6658307     1.3323799     2.0274465
15
317_C5H8N2_0-4-10-9 (-45,) energy =    -304.8507322
C           1.2224443    -0.2013290    -1.0324477
H           0.8487206     0.7320501    -0.5978671
H           0.3674821    -0.8580465    -1.2269446
H           1.7024246     0.0425626    -1.9839599
C           2.2280975    -0.8824679    -0.0942146
H           2.5148530    -1.8558890    -0.5166263
H           1.7576475    -1.0970563     0.8747808
C           5.2108405     1.1673457    -0.1532701
H           5.9421273     1.7571057    -0.6897973
N           4.1528007     0.5732348    -0.8059952
C           3.4630360    -0.0569350     0.1258458
N           4.0433414     0.1108649     1.3564882
H           3.7027574    -0.2633205     2.2303089
C           5.1678163     0.8969490     1.1901170
H           5.7998838     1.1799603     2.0182955
15
317_C5H8N2_0-4-10-9 (-30,) energy =    -304.8507594
C           1.2498384    -0.2395633    -1.1011234
H           0.8854382     0.7489020    -0.8030118
H           0.3861186    -0.8936359    -1.2617521
H           1.7846972    -0.1222602    -2.0470545
C           2.1788725    -0.8271914    -0.0328406
H           2.4566164    -1.8529149    -0.3180045
H           1.6473868    -0.9141418     0.9250743
C           5.1448847     1.2484054    -0.1341645
H           5.8262714     1.8987918    -0.6661522
N           4.0327503     0.7183519    -0.7526025
C           3.4241920    -0.0103933     0.1631230
N           4.1067806     0.0346842     1.3518612
H           3.8468896    -0.4378670     2.2055555
C           5.2164984     0.8388656     1.1717857
H           5.9173847     1.0389742     1.9682496
15
317_C5H8N2_0-4-10-9 (-15,) energy =    -304.8506928
C           1.2852816    -0.2751914    -1.1542647
H           0.9553667     0.7560414    -0.9956095
H           0.4007563    -0.9093819    -1.2760618
H           1.8633230    -0.2940179    -2.0817355
C           2.1354678    -0.7653965     0.0215863
H           2.3894750    -1.8257695    -0.1279803
H           1.5490535    -0.7266018     0.9509310
C           5.0868595     1.3325645    -0.1009907
H           5.7236625     2.0404625    -0.6143368
N           3.9311779     0.8561183    -0.6834398
C           3.3974685     0.0310218     0.1959372
N           4.1703861    -0.0391633     1.3275246
H           3.9799749    -0.5984186     2.1464719
C           5.2604929     0.7912553     1.1456159
H           6.0220704     0.9138451     1.9010801
15
317_C5H8N2_0-4-10-9 (0,) energy =    -304.8506656
C           1.3258129    -0.3177175    -1.1990157
H           1.0754864     0.7467502    -1.1982461
H           0.3983401    -0.8968789    -1.2605117
H           1.9201694    -0.5115547    -2.0962847
C           2.1055515    -0.6956203     0.0633522
H           2.3332471    -1.7719854     0.0494821
H           1.4746464    -0.5354487     0.9503154
C           5.0315376     1.4373148    -0.0750876
H           5.6230142     2.2012566    -0.5615542
N           3.8392941     1.0027801    -0.6156352
C           3.3819551     0.0831073     0.2111069
N           4.2408984    -0.0910224     1.2672417
H           4.1181453    -0.7325498     2.0373571
C           5.3037559     0.7757157     1.0932294
H           6.1209264     0.8314883     1.7967452
15
317_C5H8N2_0-4-10-9 (15,) energy =    -304.8506932
C           1.3663559    -0.3718264    -1.2310159
H           1.1850196     0.6969147    -1.3710708
H           0.4080374    -0.9007065    -1.2675254
H           1.9836465    -0.7111063    -2.0684421
C           2.0674750    -0.6296425     0.1060391
H           2.2580848    -1.7056045     0.2287107
H           1.3957089    -0.3486918     0.9313074
C           4.9866342     1.5128719    -0.0120084
H           5.5452946     2.3267251    -0.4543839
N           3.7619741     1.1286142    -0.5163664
C           3.3612926     0.1228758     0.2365102
N           4.2887375    -0.1558911     1.2086133
H           4.2184305    -0.8781003     1.9108741
C           5.3364295     0.7334999     1.0591791
H           6.2002434     0.7182294     1.7067553
15
317_C5H8N2_0-4-10-9 (30,) energy =    -304.8507588
C           1.4048670    -0.4325445    -1.2510816
H           1.2883238     0.6203438    -1.5202670
H           0.4229123    -0.9166747    -1.2828393
H           2.0453606    -0.8978423    -2.0073874
C           2.0231744    -0.5602037     0.1457289
H           2.1685661    -1.6192970     0.4002507
H           1.3182971    -0.1644507     0.8921242
C           4.9474012     1.5741268     0.0671460
H           5.4819576     2.4319079    -0.3185525
N           3.6909148     1.2470735    -0.3959240
C           3.3339437     0.1634592     0.2661570
N           4.3205544    -0.2205314     1.1380772
H           4.2901412    -1.0160166     1.7593220
C           5.3619831     0.6806048     1.0201304
H           6.2672741     0.5926897     1.6018015
15
317_C5H8N2_0-4-10-9 (45,) energy =    -304.8507325
C           1.4408061    -0.4971483    -1.2590960
H           1.3738086     0.5222786    -1.6483305
H           0.4471739    -0.9565422    -1.3009135
H           2.1101672    -1.0624214    -1.9164770
C           1.9698464    -0.4777568     0.1814672
H           2.0658538    -1.5025860     0.5645211
H           1.2361328     0.0229995     0.8289086
C           4.9046195     1.6402690     0.1488652
H           5.4205222     2.5355748    -0.1716429
N           3.6147230     1.3747811    -0.2561728
C           3.2925465     0.2229979     0.3013286
N           4.3327478    -0.2616050     1.0513827
H           4.3362015    -1.1240437     1.5765213
C           5.3748679     0.6417434     0.9621733
H           6.3177954     0.4839753     1.4636474
15
317_C5H8N2_0-4-10-9 (60,) energy =    -304.8506460
C           1.4982757    -0.5646765    -1.2558932
H           1.4732226     0.4054461    -1.7602769
H           0.5012134    -1.0153773    -1.3139633
H           2.1982834    -1.2087784    -1.7996342
C           1.9319508    -0.3860891     0.2078092
H           1.9670126    -1.3601122     0.7133988
H           1.1781102     0.2109400     0.7367022
C           4.8863987     1.7017993     0.2301596
H           5.3922684     2.6256998    -0.0168434
N           3.5645425     1.5000812    -0.1007566
C           3.2642288     0.2925358     0.3392180
N           4.3498368    -0.2892936     0.9411090
H           4.3758146    -1.2071833     1.3610446
C           5.3991283     0.6076655     0.8785986
H           6.3729514     0.3837334     1.2872011
15
317_C5H8N2_0-4-10-9 (75,) energy =    -304.8506100
C           1.5483875    -0.6475411    -1.2332047
H           1.5825637     0.2583278    -1.8458860
H           0.5446098    -1.0806385    -1.3089543
H           2.2624015    -1.3655864    -1.6524520
C           1.8896668    -0.3114296     0.2293616
H           1.8529345    -1.2224826     0.8413805
H           1.1305791     0.3686908     0.6314952
C           4.8656024     1.7414536     0.3336842
H           5.3683748     2.6857459     0.1723797
N           3.5203707     1.5939123     0.0760932
C           3.2306327     0.3430621     0.3816783
N           4.3463034    -0.3192777     0.8261139
H           4.3868262    -1.2837140     1.1223435
C           5.4036087     0.5699507     0.8013372
H           6.3976804     0.2911733     1.1169570
15
317_C5H8N2_0-4-10-9 (90,) energy =    -304.8506368
C           1.2057389    -0.7794128     0.0841235
H           1.4894982    -1.4787176     0.8768339
H           0.3421931    -1.1932079    -0.4487038
H           0.8931668     0.1579795     0.5588894
C           2.3855135    -0.5546129    -0.8798321
H           2.0798736     0.1221658    -1.6893844
H           2.6616988    -1.5049966    -1.3471406
C           5.4582890     0.1640757     0.8860402
H           6.3582514    -0.1642567     1.3886605
N           4.5795682    -0.7393657     0.3288973
C           3.6099233    -0.0180127    -0.2015869
N           3.8343625     1.3208870    -0.0011134
H           3.2473737     2.0786250    -0.3186907
C           5.0216063     1.4494832     0.6939657
H           5.4278622     2.4123620     0.9650126
15
317_C5H8N2_0-4-10-9 (105,) energy =    -304.8506387
C           1.1813945    -0.6974323     0.0512541
H           1.3935280    -1.3106326     0.9330545
H           0.3313591    -1.1408843    -0.4791628
H           0.8756351     0.2961267     0.4004655
C           2.4156655    -0.6211342    -0.8661390
H           2.1717657    -0.0322892    -1.7616582
H           2.6853147    -1.6241466    -1.2093753
C           5.5277869     0.1747816     0.7962487
H           6.4784973    -0.1260237     1.2156501
N           4.6799748    -0.7430138     0.2142258
C           3.6302312    -0.0554038    -0.1943067
N           3.7744799     1.2761320     0.1067746
H           3.1136785     2.0107470    -0.1010130
C           4.9905843     1.4348135     0.7433909
H           5.3420875     2.3988868     1.0792408
15
317_C5H8N2_0-4-10-9 (120,) energy =    -304.8505585
C           1.1617676    -0.6209704     0.0075951
H           1.3062741    -1.1348666     0.9636676
H           0.3256045    -1.0984642    -0.5147381
H           0.8651524     0.4124572     0.2257250
C           2.4399669    -0.6810948    -0.8467812
H           2.2564679    -0.1851307    -1.8111501
H           2.6939482    -1.7207635    -1.0720282
C           5.5919341     0.2081779     0.6891433
H           6.5876948    -0.0537086     1.0209190
N           4.7681787    -0.7224635     0.0928083
C           3.6459268    -0.0858209    -0.1843502
N           3.7200705     1.2256593     0.2144275
H           2.9977444     1.9237314     0.1134775
C           4.9668465     1.4247986     0.7762680
H           5.2730123     2.3824133     1.1700336
15
317_C5H8N2_0-4-10-9 (135,) energy =    -304.8503199
C           1.1429135    -0.5477076    -0.0430029
H           1.2135173    -0.9607940     0.9688681
H           0.3167807    -1.0484977    -0.5588224
H           0.8709399     0.5118283     0.0460291
C           2.4573662    -0.7414962    -0.8152197
H           2.3386244    -0.3452478    -1.8347643
H           2.6822178    -1.8065382    -0.9234901
C           5.6417651     0.2499595     0.5842866
H           6.6748329     0.0358050     0.8233707
N           4.8371953    -0.6922604    -0.0197054
C           3.6572434    -0.1193249    -0.1646744
N           3.6764948     1.1626226     0.3249441
H           2.9017237     1.8094535     0.3380762
C           4.9465905     1.4091967     0.8108254
H           5.2158191     2.3524905     1.2619691
15
317_C5H8N2_0-4-10-9 (150,) energy =    -304.8499709
C           1.1345649    -0.4684335    -0.0969863
H           1.1398310    -0.7538467     0.9607589
H           0.3153378    -1.0039392    -0.5875967
H           0.8957614     0.6013072    -0.1581568
C           2.4721728    -0.7977362    -0.7738425
H           2.4178121    -0.5135348    -1.8351799
H           2.6515102    -1.8773573    -0.7600904
C           5.6795597     0.2942051     0.4908318
H           6.7390976     0.1333842     0.6388771
N           4.8926584    -0.6501508    -0.1317417
C           3.6714088    -0.1499269    -0.1442946
N           3.6468667     1.0875226     0.4473962
H           2.8349702     1.6731330     0.5752446
C           4.9320371     1.3814920     0.8621482
H           5.1738409     2.3009801     1.3737693
15
317_C5H8N2_0-4-10-9 (165,) energy =    -304.8496263
C           1.1337535    -0.3906735    -0.1615698
H           1.0802595    -0.5439596     0.9225875
H           0.3142685    -0.9543294    -0.6183148
H           0.9444034     0.6707831    -0.3672999
C           2.4818730    -0.8492589    -0.7304960
H           2.4861258    -0.6980845    -1.8190733
H           2.6085003    -1.9271372    -0.5802777
C           5.6986509     0.3625245     0.3975446
H           6.7746675     0.2662358     0.4564143
N           4.9312085    -0.5763514    -0.2557284
C           3.6823933    -0.1656142    -0.1384914
N           3.6215119     1.0086483     0.5671954
H           2.7844910     1.5215117     0.8008594
C           4.9119803     1.3570312     0.9186105
H           5.1306552     2.2434472     1.4947882
15
317_C5H8N2_0-4-10-9 (180,) energy =    -304.8494915
C           1.1205195    -0.3262198    -0.2369478
H           1.0053984    -0.3575527     0.8536167
H           0.2971839    -0.9042513    -0.6676823
H           0.9964992     0.7128981    -0.5661819
C           2.4694879    -0.9031751    -0.6805975
H           2.5285811    -0.9044577    -1.7763459
H           2.5384352    -1.9562323    -0.3798882
C           5.6921824     0.4210849     0.2931980
H           6.7731402     0.3888267     0.2604084
N           4.9293324    -0.4978703    -0.3923790
C           3.6730756    -0.1789685    -0.1436467
N           3.6027637     0.9157940     0.6790085
H           2.7593999     1.3546281     1.0171335
C           4.8955166     1.3106187     0.9669276
H           5.1094814     2.1560722     1.6032422
