21
276_C7H10N2O2_1-0-13-10 (-165,) energy =    -532.7092024
C           2.1902861    -0.4701867     0.2756553
N           1.3192857    -0.2376944    -0.7648869
C           0.1227739    -1.0615933    -0.8705690
H           0.2071368    -1.7765045    -1.7009376
H          -0.7534326    -0.4254880    -1.0484537
H          -0.0047891    -1.6152354     0.0579720
C           1.5796030     0.6466620    -1.8879913
H           1.0247070     1.5954097    -1.8152816
H           1.2624063     0.1522294    -2.8136365
H           2.6462145     0.8554366    -1.9775470
C           4.3740509     0.0102994     1.3959837
O           4.4536759    -1.1488584     2.0661642
H           3.5787001    -1.5866611     1.9046530
C           3.3233769     0.3974627     0.5515096
N           3.6663550     1.6640035     0.0568105
H           3.0132064     2.3054035    -0.3644578
C           4.8519439     2.0572121     0.6120779
H           5.2648659     3.0322160     0.3940530
C           5.3396565     1.0488150     1.4184308
H           6.2706326     1.0468957     1.9662457
O           2.0244411    -1.4627422     1.0220239
21
276_C7H10N2O2_1-0-13-10 (-150,) energy =    -532.7074178
C           2.1290999    -0.3966248     0.3505791
N           1.3444217    -0.2381414    -0.7682220
C           0.1582042    -1.0707446    -0.9135501
H           0.2898284    -1.7999383    -1.7247497
H          -0.7135548    -0.4463019    -1.1481271
H          -0.0101244    -1.6069233     0.0187562
C           1.6470829     0.6259656    -1.8960289
H           1.0195153     1.5308412    -1.9095960
H           1.4547393     0.0788281    -2.8268855
H           2.6976072     0.9150594    -1.8906590
C           4.3855330     0.0018962     1.3436134
O           4.4886130    -1.1910990     1.9518836
H           3.5834779    -1.5847814     1.8827321
C           3.2691360     0.4638930     0.6352727
N           3.6135852     1.7311749     0.1443777
H           2.9418996     2.4108557    -0.1780347
C           4.8615997     2.0630812     0.5954479
H           5.2829896     3.0360205     0.3846584
C           5.3885840     1.0045190     1.3071962
H           6.3684906     0.9480054     1.7582996
O           1.9249899    -1.3531211     1.1320298
21
276_C7H10N2O2_1-0-13-10 (-135,) energy =    -532.7037931
C           2.0472024     0.8866297    -0.3722442
N           1.2490949    -0.0551398    -0.9779079
C           1.5722119    -1.4607078    -1.1519836
H           1.8168189    -1.7027052    -2.1978287
H           0.7018438    -2.0653164    -0.8684332
H           2.4056053    -1.7475668    -0.5124233
C          -0.0611940     0.3516104    -1.4673685
H          -0.1543198     1.4311494    -1.3627497
H          -0.8578064    -0.1337417    -0.8874625
H          -0.1780526     0.0657191    -2.5210003
C           3.8386893     1.0079269     1.3565647
O           3.2141535     1.9036468     2.1434372
H           2.4872340     2.2688304     1.5854869
C           3.3960503     0.5812510     0.1003009
N           4.3170784    -0.3825758    -0.3312066
H           4.3962908    -0.6952658    -1.2870580
C           5.3314112    -0.4773159     0.5821692
H           6.1917790    -1.1027627     0.3894756
C           5.0520829     0.3386250     1.6600652
H           5.6440278     0.4578457     2.5558016
O           1.5816570     2.0055300    -0.0655632
21
276_C7H10N2O2_1-0-13-10 (-120,) energy =    -532.6986527
C           2.0808956     0.9689498    -0.4969408
N           1.2543274    -0.0163971    -0.9832834
C           1.5675052    -1.4335327    -1.0528708
H           1.7285782    -1.7666190    -2.0893984
H           0.7248017    -2.0076193    -0.6474503
H           2.4533307    -1.6622504    -0.4628980
C          -0.0637091     0.3587695    -1.4769776
H          -0.1500257     1.4437228    -1.4522230
H          -0.8484816    -0.0776053    -0.8446833
H          -0.2049604    -0.0060863    -2.5030077
C           3.7691019     0.9573589     1.3375376
O           3.0845824     1.7782050     2.1637563
H           2.4229216     2.2306316     1.5964790
C           3.4221295     0.6633923     0.0185520
N           4.3635854    -0.2680819    -0.4331357
H           4.4955025    -0.5072373    -1.4044086
C           5.3108405    -0.4616287     0.5359960
H           6.1845476    -1.0683843     0.3439195
C           4.9564602     0.2527107     1.6632377
H           5.4841641     0.2844167     2.6053508
O           1.6407685     2.1144282    -0.2777849
21
276_C7H10N2O2_1-0-13-10 (-105,) energy =    -532.6928545
C           2.1099536     1.0499080    -0.5987719
N           1.2735100     0.0263212    -0.9796477
C           1.5619524    -1.3923254    -0.8466682
H           1.7136165    -1.8694410    -1.8260879
H           0.7120766    -1.8892728    -0.3616098
H           2.4482794    -1.5488746    -0.2343564
C          -0.0293860     0.3566793    -1.5396214
H          -0.0962326     1.4379036    -1.6499801
H          -0.8319302     0.0136799    -0.8729368
H          -0.1609244    -0.1294937    -2.5152924
C           3.7094497     0.8453014     1.3394203
O           2.9641564     1.5284043     2.2481112
H           2.3506364     2.0922494     1.7407028
C           3.4326221     0.7263316    -0.0173301
N           4.4148495    -0.1124469    -0.5435764
H           4.5667341    -0.2547833    -1.5305436
C           5.3227164    -0.4240144     0.4331727
H           6.2172532    -0.9848593     0.2024860
C           4.9015976     0.1309353     1.6256721
H           5.3881644     0.0530986     2.5871615
O           1.7072301     2.2207166    -0.5387061
21
276_C7H10N2O2_1-0-13-10 (-90,) energy =    -532.6892773
C           2.2673300     0.8756235    -0.7918244
N           1.2046032     0.0215164    -0.9762608
C           1.1253167    -1.3312668    -0.4488928
H           0.9981824    -2.0515118    -1.2686191
H           0.2664740    -1.4356455     0.2280647
H           2.0380614    -1.5706653     0.0964178
C           0.0610405     0.4703180    -1.7568513
H           0.2323998     1.5027842    -2.0584262
H          -0.8599010     0.4034980    -1.1628490
H          -0.0618640    -0.1556203    -2.6507322
C           3.6742135     0.4202450     1.3808232
O           2.7740796     0.6076098     2.3970851
H           1.9736543     1.0157894     2.0327587
C           3.4219935     0.3626384     0.0161584
N           4.6558030     0.1751804    -0.5938200
H           4.8057598     0.2529287    -1.5878580
C           5.6368129     0.0597581     0.3508860
H           6.6623313    -0.1324098     0.0703431
C           5.0583863     0.1948191     1.5965905
H           5.5532369     0.1408844     2.5555402
O           2.3140165     1.9880388    -1.3155453
21
276_C7H10N2O2_1-0-13-10 (-75,) energy =    -532.6936422
C           2.3426394     0.7737908    -0.9168895
N           1.1817821     0.0305011    -0.9460657
C           1.0105036    -1.2667750    -0.3113549
H           0.7355298    -2.0181012    -1.0642070
H           0.2103791    -1.2405945     0.4414915
H           1.9407083    -1.5745352     0.1661848
C           0.0601520     0.5055509    -1.7421470
H           0.2974785     1.5008408    -2.1156642
H          -0.8535267     0.5406112    -1.1348719
H          -0.1195874    -0.1646694    -2.5939022
C           3.6357505     0.2699225     1.3144209
O           2.6693032     0.2819981     2.2833499
H           1.8322612     0.5618189     1.8815678
C           3.4565587     0.2673383    -0.0689701
N           4.7371400     0.2861963    -0.6111407
H           4.9107823     0.5095515    -1.5796400
C           5.6723823     0.2291918     0.3777402
H           6.7274232     0.1808082     0.1487173
C           5.0214022     0.2003080     1.5969899
H           5.4714628     0.1368759     2.5771144
O           2.5029094     1.7660484    -1.6297007
21
276_C7H10N2O2_1-0-13-10 (-60,) energy =    -532.6981611
C           2.4031092     0.6988457    -0.9872085
N           1.1710687     0.0842402    -0.8262569
C           0.9983721    -1.2530535    -0.2709745
H           0.7616532    -1.9700229    -1.0708953
H           0.1717794    -1.2718457     0.4505460
H           1.9122759    -1.5779075     0.2251758
C           0.0630504     0.5684826    -1.6385632
H           0.2561520     1.6021896    -1.9228341
H          -0.8692513     0.5037532    -1.0660796
H          -0.0500588    -0.0290324    -2.5549161
C           3.6231173     0.2306184     1.2775906
O           2.6137647     0.2343289     2.1975494
H           1.7910090     0.4753482     1.7414065
C           3.4999664     0.2367250    -0.1137958
N           4.7986163     0.2796194    -0.6062619
H           4.9992876     0.5008145    -1.5703307
C           5.6934354     0.2324818     0.4172513
H           6.7578161     0.2089421     0.2312843
C           4.9967952     0.1865173     1.6127274
H           5.4123606     0.1306975     2.6083856
O           2.5926297     1.5679374    -1.8399296
21
276_C7H10N2O2_1-0-13-10 (-45,) energy =    -532.7017509
C           2.4066823     0.6235642    -1.0804581
N           1.1464904     0.1205391    -0.7291125
C           0.9949994    -1.2657206    -0.2772372
H           0.8367220    -1.9396541    -1.1331035
H           0.1265697    -1.3498728     0.3854578
H           1.8835799    -1.5925255     0.2614066
C           0.0282990     0.6024670    -1.5362049
H           0.1750404     1.6577643    -1.7654486
H          -0.9009991     0.4709250    -0.9724850
H          -0.0546275     0.0542431    -2.4859961
C           3.5836668     0.2698425     1.2081300
O           2.5379511     0.2713440     2.0800388
H           1.7337567     0.4677587     1.5661296
C           3.5095662     0.2648461    -0.1877243
N           4.8187313     0.3289530    -0.6434645
H           5.0431300     0.5166791    -1.6094938
C           5.6790956     0.3182766     0.4094423
H           6.7493049     0.3233062     0.2586919
C           4.9468019     0.2703130     1.5852713
H           5.3352473     0.2423281     2.5929807
O           2.5725972     1.3440073    -2.0642413
21
276_C7H10N2O2_1-0-13-10 (-30,) energy =    -532.7037321
C           2.4089641     0.5601055    -1.1433227
N           1.1364393     0.1525135    -0.6712944
C           0.9721560    -1.2586594    -0.2857348
H           0.8305670    -1.8958590    -1.1721795
H           0.0899212    -1.3627511     0.3544730
H           1.8457906    -1.6116053     0.2616027
C           0.0145867     0.6500322    -1.4695617
H           0.1640728     1.7075037    -1.6895824
H          -0.9081986     0.5221448    -0.8950225
H          -0.0826958     0.1131915    -2.4239417
C           3.5586114     0.2751981     1.1670946
O           2.4939338     0.2526067     2.0101138
H           1.7045286     0.4470780     1.4671579
C           3.5131236     0.3159036    -0.2304298
N           4.8280994     0.3925062    -0.6636570
H           5.0690218     0.5581149    -1.6297507
C           5.6678013     0.3647262     0.4042953
H           6.7404468     0.3915835     0.2745822
C           4.9149422     0.2854536     1.5668979
H           5.2877517     0.2468578     2.5801020
O           2.5560684     1.1362147    -2.2196948
21
276_C7H10N2O2_1-0-13-10 (-15,) energy =    -532.7038414
C           2.4213064     0.4759591    -1.1626038
N           1.1369121     0.1555091    -0.6170456
C           0.9445640    -1.2700642    -0.2828194
H           0.8263789    -1.8804308    -1.1912091
H           0.0409920    -1.3792864     0.3255438
H           1.7945695    -1.6480038     0.2862430
C           0.0249524     0.6761611    -1.4193865
H           0.1905217     1.7338351    -1.6303037
H          -0.8995893     0.5624149    -0.8449161
H          -0.0804260     0.1484391    -2.3772567
C           3.5429134     0.2692473     1.1717063
O           2.4657275     0.2158463     1.9928005
H           1.6871780     0.4101955     1.4291568
C           3.5162661     0.3653896    -0.2249190
N           4.8365793     0.4490756    -0.6404652
H           5.0908077     0.5900830    -1.6070277
C           5.6609792     0.3942888     0.4370674
H           6.7348737     0.4409672     0.3240641
C           4.8936277     0.2801761     1.5884280
H           5.2548830     0.2232428     2.6049101
O           2.5634611     0.8960863    -2.3087077
21
276_C7H10N2O2_1-0-13-10 (0,) energy =    -532.7021683
C           2.5621393    -0.4233639    -1.0649292
N           1.2332544    -0.4531493    -0.4902770
C           0.4131718    -1.5392641    -1.0432610
H           0.1819552    -1.3910046    -2.1064666
H          -0.5210045    -1.5884098    -0.4753453
H           0.9443201    -2.4874754    -0.9368960
C           0.5414312     0.8488279    -0.6170603
H           1.1614113     1.6485609    -0.2071929
H          -0.3954649     0.8120833    -0.0521342
H           0.3075598     1.0818318    -1.6670912
C           3.4765605     0.6681436     1.1023889
O           2.3876111     0.6346801     1.9031957
H           1.7350174     0.0677782     1.4325717
C           3.5596352     0.1426702    -0.1953560
N           4.8608763     0.3610125    -0.6269344
H           5.1841010     0.0717562    -1.5383046
C           5.5683099     0.9821990     0.3499717
H           6.6123061     1.2281398     0.2156138
C           4.7430639     1.1904726     1.4478975
H           5.0176582     1.6490751     2.3866104
O           2.8216204    -0.9309764    -2.1521604
21
276_C7H10N2O2_1-0-13-10 (15,) energy =    -532.7038414
C           2.5709786    -0.5086602    -1.0202575
N           1.2271668    -0.4750056    -0.5268815
C           0.3774746    -1.5238774    -1.1003228
H           0.1508751    -1.3435705    -2.1602386
H          -0.5592893    -1.5581128    -0.5354956
H           0.8825555    -2.4877211    -1.0201611
C           0.5752890     0.8483636    -0.5931291
H           1.2298616     1.6190707    -0.1849421
H          -0.3468940     0.8254704    -0.0036804
H           0.3171423     1.1147255    -1.6295641
C           3.4585335     0.6859307     1.1092978
O           2.3837222     0.6196662     1.9322970
H           1.7340546     0.0394288     1.4818681
C           3.5288800     0.2010792    -0.2024634
N           4.8247192     0.4310037    -0.6395155
H           5.1563325     0.1128012    -1.5381645
C           5.5379194     1.0425167     0.3408373
H           6.5746158     1.3113274     0.1952322
C           4.7216555     1.2217533     1.4493971
H           4.9978962     1.6720025     2.3917087
O           2.8925145    -1.1637931    -2.0088705
21
276_C7H10N2O2_1-0-13-10 (30,) energy =    -532.7037321
C           2.6003856    -0.5687504    -0.9604215
N           1.2410291    -0.4748641    -0.5710664
C           0.3791022    -1.5047054    -1.1540049
H           0.1675475    -1.3131204    -2.2156266
H          -0.5658200    -1.5244151    -0.6019915
H           0.8677759    -2.4763663    -1.0760789
C           0.6174189     0.8584897    -0.5883037
H           1.3035760     1.6086425    -0.1960628
H          -0.2850682     0.8484304     0.0317461
H           0.3284922     1.1456507    -1.6110050
C           3.4754051     0.6955018     1.1316618
O           2.4150993     0.6093333     1.9760960
H           1.7583121     0.0308946     1.5404153
C           3.5197700     0.2575269    -0.1961078
N           4.8123052     0.4879448    -0.6421750
H           5.1444483     0.1474793    -1.5324386
C           5.5416347     1.0765680     0.3416958
H           6.5727525     1.3586842     0.1825607
C           4.7415936     1.2297410     1.4647299
H           5.0283106     1.6639627     2.4114629
O           2.9797787    -1.3417267    -1.8383146
21
276_C7H10N2O2_1-0-13-10 (45,) energy =    -532.7017509
C           2.6150018    -0.6096478    -0.8822778
N           1.2434889    -0.4586707    -0.6358969
C           0.3805499    -1.4756193    -1.2318474
H           0.1787996    -1.2678442    -2.2928169
H          -0.5711545    -1.4970646    -0.6910352
H           0.8663863    -2.4487570    -1.1632657
C           0.6363354     0.8745249    -0.5829775
H           1.3453785     1.6033364    -0.1923306
H          -0.2479597     0.8569383     0.0636524
H           0.3183318     1.1981594    -1.5859130
C           3.4952541     0.7197137     1.1685785
O           2.4590526     0.6257667     2.0467664
H           1.7872664     0.0489207     1.6401230
C           3.4979518     0.3144380    -0.1691994
N           4.7821985     0.5481317    -0.6401710
H           5.1057546     0.1823083    -1.5235132
C           5.5373098     1.1237135     0.3332146
H           6.5603095     1.4190110     0.1478233
C           4.7659937     1.2587450     1.4768760
H           5.0711723     1.6868828     2.4206535
O           3.0530446    -1.4818929    -1.6317432
21
276_C7H10N2O2_1-0-13-10 (60,) energy =    -532.6981611
C           2.6303487    -0.6532721    -0.7706503
N           1.2604208    -0.4451934    -0.7395665
C           0.4086340    -1.4624852    -1.3411013
H           0.1627251    -1.2109909    -2.3831210
H          -0.5261536    -1.5420488    -0.7746173
H           0.9339789    -2.4167210    -1.3316847
C           0.6430273     0.8654215    -0.5731562
H           1.3777155     1.5881273    -0.2199051
H          -0.1864272     0.8168861     0.1436151
H           0.2374139     1.2201955    -1.5321164
C           3.5163601     0.7881549     1.2231133
O           2.5129021     0.7181021     2.1469957
H           1.8360027     0.1082025     1.8110179
C           3.4760046     0.3577853    -0.1051073
N           4.7449684     0.5976877    -0.6176177
H           5.0565341     0.1943328    -1.4887434
C           5.5229388     1.2092843     0.3159435
H           6.5331156     1.5186423     0.0882442
C           4.7852665     1.3595846     1.4777078
H           5.1080572     1.8188444     2.4007740
O           3.1311584    -1.6164519    -1.3535332
21
276_C7H10N2O2_1-0-13-10 (75,) energy =    -532.6936423
C           2.5935212    -0.7215417    -0.6811702
N           1.2601838    -0.4262096    -0.8709164
C           0.3911487    -1.4351363    -1.4576010
H           0.0528584    -1.1204280    -2.4543649
H          -0.4947311    -1.5910478    -0.8285147
H           0.9517305    -2.3646026    -1.5484946
C           0.6525340     0.8703970    -0.6167474
H           1.4101417     1.5783977    -0.2808975
H          -0.1369554     0.7993013     0.1444005
H           0.1939491     1.2555563    -1.5377595
C           3.5389136     0.7651716     1.2682561
O           2.5758164     0.7137364     2.2392146
H           1.8932652     0.0820085     1.9646038
C           3.4423710     0.3275626    -0.0527747
N           4.6898208     0.5693965    -0.6180656
H           4.9769092     0.1544761    -1.4918276
C           5.5042760     1.1935818     0.2779010
H           6.5003964     1.5102049     0.0033329
C           4.8136092     1.3490835     1.4653597
H           5.1673012     1.8214526     2.3703384
O           3.0979855    -1.7670848    -1.0944327
21
276_C7H10N2O2_1-0-13-10 (90,) energy =    -532.6892775
C           2.5480765    -0.8027666    -0.5304279
N           1.2804233    -0.4194888    -0.9034253
C           0.3817209    -1.4076043    -1.4817391
H           0.1138000    -1.1267629    -2.5090020
H          -0.5428173    -1.4771640    -0.8936559
H           0.8879198    -2.3719659    -1.4902408
C           0.7476421     0.9270345    -0.7714486
H           1.5069714     1.5866574    -0.3517906
H          -0.1342168     0.9345523    -0.1164309
H           0.4415289     1.3121255    -1.7537248
C           3.6194442     0.6597122     1.3721490
O           2.7722067     0.4837677     2.4348320
H           2.1627246    -0.2419874     2.2302827
C           3.4352676     0.2545101     0.0563531
N           4.5769965     0.6490777    -0.6294187
H           4.7969905     0.3513925    -1.5673072
C           5.4190226     1.3274002     0.2066238
H           6.3442233     1.7512265    -0.1562745
C           4.8474123     1.3648735     1.4621959
H           5.2477648     1.8366355     2.3479332
O           2.9733060    -1.9409697    -0.7243547
21
276_C7H10N2O2_1-0-13-10 (105,) energy =    -532.6928542
C           2.4440197    -0.9577330    -0.2890490
N           1.3478616    -0.4022180    -0.9074538
C           0.2493142    -1.2726437    -1.3020772
H           0.0229202    -1.1433336    -2.3686755
H          -0.6552664    -1.0342416    -0.7266642
H           0.5350938    -2.3045692    -1.1041678
C           1.1642121     1.0124781    -1.1873304
H           1.9211294     1.6066493    -0.6783832
H           0.1759588     1.3260118    -0.8273341
H           1.2089740     1.2222105    -2.2661829
C           3.7899572     0.2745639     1.4507011
O           3.2522377    -0.3309195     2.5424544
H           2.8772734    -1.1782602     2.2370657
C           3.5627347    -0.0814532     0.1266400
N           4.2545306     0.8471541    -0.6509661
H           4.4081462     0.7499067    -1.6431519
C           4.9632719     1.6895451     0.1636502
H           5.6448936     2.4196009    -0.2491308
C           4.6766905     1.3820372     1.4791424
H           5.0608445     1.8742596     2.3608487
O           2.4306584    -2.1309063     0.1111073
21
276_C7H10N2O2_1-0-13-10 (120,) energy =    -532.6986526
C           2.3855552    -0.8653760    -0.2128317
N           1.3162660    -0.3707840    -0.9218415
C           0.2138234    -1.2682983    -1.2393628
H           0.0196960    -1.2668277    -2.3201648
H          -0.7016869    -0.9482430    -0.7241150
H           0.4747515    -2.2723092    -0.9091149
C           1.1674050     0.9941792    -1.3971128
H           1.9021497     1.6475904    -0.9299090
H           0.1657781     1.3580167    -1.1354897
H           1.2698145     1.0601474    -2.4909392
C           3.8823649     0.1918938     1.4775135
O           3.4501506    -0.5421136     2.5260588
H           2.9975261    -1.3203646     2.1339379
C           3.5309495    -0.0174515     0.1437037
N           4.1513025     1.0022169    -0.5866346
H           4.2520021     0.9921131    -1.5904816
C           4.9352578     1.7482102     0.2517876
H           5.5805805     2.5238106    -0.1360554
C           4.7658509     1.2996577     1.5466322
H           5.2252067     1.7000819     2.4386527
O           2.3207043    -1.9835822     0.3342358
21
276_C7H10N2O2_1-0-13-10 (135,) energy =    -532.7037923
C           2.3205687    -0.7671142    -0.1149701
N           1.2991282    -0.3351782    -0.9277821
C           0.2138984    -1.2581554    -1.2315953
H           0.0677366    -1.3272606    -2.3175786
H          -0.7250093    -0.9130032    -0.7779877
H           0.4635789    -2.2375349    -0.8272073
C           1.1691639     0.9937037    -1.5001369
H           1.8324418     1.6968857    -0.9986252
H           0.1379630     1.3422011    -1.3636733
H           1.3810465     1.0017426    -2.5805327
C           3.9627318     0.1729977     1.5070185
O           3.6127658    -0.6208253     2.5360464
H           3.0700148    -1.3379531     2.1307189
C           3.4758308     0.0707894     0.1998839
N           4.0654441     1.1190120    -0.5191301
H           4.0920370     1.1640021    -1.5265739
C           4.9464575     1.7815863     0.2913373
H           5.5731877     2.5696271    -0.1020341
C           4.8829375     1.2510873     1.5642462
H           5.4330486     1.5798651     2.4338671
O           2.2179440    -1.8452421     0.5094379
21
276_C7H10N2O2_1-0-13-10 (150,) energy =    -532.7074168
C           2.2462899    -0.6694575    -0.0198308
N           1.2869317    -0.3051692    -0.9359572
C           0.2270347    -1.2533268    -1.2510221
H           0.1315370    -1.3627640    -2.3390261
H          -0.7368707    -0.9089029    -0.8518465
H           0.4713738    -2.2143976    -0.8019343
C           1.1679153     1.0010482    -1.5602644
H           1.7371349     1.7474480    -1.0068970
H           0.1149255     1.3073750    -1.5493174
H           1.4985513     0.9944805    -2.6107644
C           4.0133379     0.1606638     1.5356757
O           3.7235138    -0.6775400     2.5442126
H           3.0933052    -1.3313815     2.1510892
C           3.4034072     0.1642313     0.2746847
N           3.9863193     1.2203963    -0.4396344
H           3.9369292     1.3181288    -1.4420565
C           4.9636823     1.7944969     0.3255005
H           5.5841841     2.5845036    -0.0738746
C           4.9858081     1.1928106     1.5676407
H           5.6230765     1.4475569     2.4018159
O           2.1071516    -1.7146186     0.6552289
21
276_C7H10N2O2_1-0-13-10 (165,) energy =    -532.7092018
C           2.1720543    -0.6055920     0.0564812
N           1.2814683    -0.3171827    -0.9532046
C           0.2490946    -1.2933909    -1.2739437
H           0.2093125    -1.4526141    -2.3589561
H          -0.7385244    -0.9483398    -0.9374740
H           0.4844746    -2.2298753    -0.7714112
C           1.1603444     0.9716795    -1.6132671
H           1.6215178     1.7583043    -1.0150301
H           0.0979624     1.2198989    -1.7207445
H           1.6015530     0.9720105    -2.6225602
C           4.0500830     0.1279449     1.5366299
O           3.8135616    -0.7517503     2.5212733
H           3.1048052    -1.3423036     2.1579531
C           3.3238798     0.2340065     0.3415134
N           3.9046727     1.2895507    -0.3759671
H           3.7738271     1.4454646    -1.3628974
C           4.9706916     1.7775645     0.3267141
H           5.5843842     2.5676244    -0.0829763
C           5.0733451     1.1098011     1.5303379
H           5.7930324     1.2908867     2.3152430
O           2.0017533    -1.6193475     0.7725639
21
276_C7H10N2O2_1-0-13-10 (180,) energy =    -532.7090614
C           2.1082088    -0.5216099     0.1451238
N           1.2919998    -0.3134273    -0.9455199
C           0.2869967    -1.3187393    -1.2654347
H           0.2844638    -1.5080080    -2.3458014
H          -0.7180940    -0.9884902    -0.9671031
H           0.5268419    -2.2360921    -0.7308240
C           1.1757687     0.9509268    -1.6532721
H           1.5073733     1.7804142    -1.0253600
H           0.1221736     1.1308210    -1.8940862
H           1.7350427     0.9598259    -2.6022795
C           4.0853571     0.1096588     1.5425946
O           3.8955815    -0.8143610     2.4949577
H           3.1123967    -1.3353147     2.1771562
C           3.2546888     0.3237735     0.4301707
N           3.8383454     1.3747412    -0.2916202
H           3.6084659     1.6225457    -1.2395782
C           4.9810698     1.7758348     0.3381830
H           5.5889199     2.5671591    -0.0777818
C           5.1562851     1.0364169     1.4909929
H           5.9520291     1.1376825     2.2143539
O           1.9034067    -1.5015174     0.8990940
