18
334_C7H9NO_0-4-13-10 (-165,) energy =    -402.1253431
C           2.0676088    -2.0394224    -0.7085953
H           2.6517623    -2.7753953    -0.1477703
H           2.4462506    -2.0175784    -1.7431716
H           1.0265969    -2.3753690    -0.7321732
N           2.1295248    -0.7537448    -0.0226001
H           1.5015722    -0.0840133    -0.4650637
C           5.8126686     1.1528439     0.7842037
H           6.7425709     1.6668350     1.0113612
C           4.6316532     1.5541722     1.4140006
H           4.6201355     2.3608559     2.1404479
C           3.4415446     0.8907279     1.1302116
O           2.2861944     1.2518127     1.7646928
H           1.6809516     0.4913468     1.6527418
C           3.4106473    -0.1626047     0.1907412
C           4.6026081    -0.5672920    -0.4129964
H           4.5982241    -1.3871991    -1.1247536
C           5.8030689     0.0855215    -0.1128014
H           6.7235455    -0.2374115    -0.5907198
18
334_C7H9NO_0-4-13-10 (-150,) energy =    -402.1253091
C           2.0357734    -2.0615172    -0.5869183
H           2.5518241    -2.7077292     0.1291617
H           2.4863317    -2.2210995    -1.5792201
H           0.9872917    -2.3720354    -0.6369244
N           2.0953777    -0.6803860    -0.1116468
H           1.5591808    -0.0733920    -0.7309375
C           5.8056357     1.1265967     0.8120940
H           6.7414931     1.6131436     1.0736553
C           4.6347743     1.4910453     1.4785038
H           4.6366820     2.2415272     2.2628697
C           3.4338688     0.8623954     1.1498388
O           2.2875172     1.1815107     1.8087972
H           1.6477515     0.4898458     1.5320728
C           3.3939753    -0.1179371     0.1357778
C           4.5766535    -0.4815103    -0.5095019
H           4.5571762    -1.2451762    -1.2820308
C           5.7845851     0.1351804    -0.1704669
H           6.7001854    -0.1539804    -0.6782664
18
334_C7H9NO_0-4-13-10 (-135,) energy =    -402.1254485
C           2.0163472    -2.0644754    -0.4732465
H           2.3979759    -2.5973483     0.4024063
H           2.5869687    -2.4004684    -1.3528274
H           0.9683924    -2.3466414    -0.6182474
N           2.0882685    -0.6219006    -0.2217131
H           1.6716420    -0.1166364    -1.0028710
C           5.8081856     1.0953798     0.8399988
H           6.7466091     1.5560597     1.1374813
C           4.6424847     1.4068804     1.5384283
H           4.6494013     2.0959338     2.3771738
C           3.4357577     0.8128122     1.1595145
O           2.2909537     1.0899538     1.8314636
H           1.6273479     0.4920351     1.4173525
C           3.3960524    -0.0872398     0.0750348
C           4.5731650    -0.3893209    -0.6109865
H           4.5453941    -1.0828787    -1.4478461
C           5.7826329     0.1961030    -0.2296330
H           6.6955481    -0.0435564    -0.7669945
18
334_C7H9NO_0-4-13-10 (-120,) energy =    -402.1258515
C           1.9932201    -2.0520110    -0.3601410
H           2.2162340    -2.4390154     0.6384975
H           2.6789987    -2.5356588    -1.0727114
H           0.9674650    -2.3356859    -0.6177808
N           2.0927179    -0.5856337    -0.3380873
H           1.7931326    -0.2120478    -1.2371691
C           5.8020948     1.0603148     0.8621160
H           6.7391709     1.4984200     1.1959200
C           4.6365407     1.3095415     1.5846667
H           4.6414140     1.9336873     2.4727671
C           3.4298794     0.7479438     1.1560136
O           2.2815471     0.9798227     1.8368915
H           1.6033404     0.4858191     1.3209150
C           3.3961535    -0.0654457     0.0061360
C           4.5719449    -0.3005011    -0.7078101
H           4.5411577    -0.9225098    -1.5999455
C           5.7788391     0.2594038    -0.2839546
H           6.6913169     0.0751665    -0.8433554
18
334_C7H9NO_0-4-13-10 (-105,) energy =    -402.1260990
C           1.9547587    -2.0130602    -0.2411534
H           2.0723656    -2.2362962     0.8235071
H           2.6854534    -2.6199288    -0.7979028
H           0.9452887    -2.3095266    -0.5447667
N           2.1137532    -0.5638406    -0.4460806
H           1.9167250    -0.3337362    -1.4177392
C           5.8022727     1.0299670     0.8724135
H           6.7353254     1.4502733     1.2386060
C           4.6353563     1.2102239     1.6143238
H           4.6351208     1.7679134     2.5456097
C           3.4332518     0.6755105     1.1434820
O           2.2796685     0.8534544     1.8348281
H           1.5911962     0.4705374     1.2455243
C           3.4052290    -0.0493677    -0.0640128
C           4.5810211    -0.2148410    -0.7966532
H           4.5512345    -0.7695195    -1.7325842
C           5.7831522     0.3265798    -0.3354805
H           6.6951233     0.1986836    -0.9111968
18
334_C7H9NO_0-4-13-10 (-90,) energy =    -402.1260179
C           1.9059006    -1.9584573    -0.1357359
H           1.9183412    -2.0088662     0.9571111
H           2.6509318    -2.6731072    -0.5181865
H           0.9123062    -2.2613927    -0.4817985
N           2.1585252    -0.5683426    -0.5535718
H           2.0555940    -0.4850621    -1.5617313
C           5.8041954     1.0158366     0.8821310
H           6.7279949     1.4282877     1.2790445
C           4.6315975     1.1163377     1.6322952
H           4.6169318     1.6092283     2.5993813
C           3.4427595     0.5942134     1.1212743
O           2.2812925     0.7098197     1.8206410
H           1.5850242     0.4436628     1.1822551
C           3.4281191    -0.0473670    -0.1331395
C           4.6077497    -0.1329133    -0.8731559
H           4.5918990    -0.6251489    -1.8438000
C           5.7968793     0.4054734    -0.3742007
H           6.7102232     0.3397799    -0.9581948
18
334_C7H9NO_0-4-13-10 (-75,) energy =    -402.1250041
C           1.8460848    -1.9072580    -0.0533133
H           1.7674555    -1.7996076     1.0314539
H           2.5716026    -2.7085519    -0.2630900
H           0.8669245    -2.2055117    -0.4412400
N           2.2205715    -0.6118106    -0.6467892
H           2.2051186    -0.6674000    -1.6607952
C           5.8075008     1.0134834     0.8868943
H           6.7197728     1.4271548     1.3078705
C           4.6327820     1.0303334     1.6415412
H           4.6030186     1.4647889     2.6360098
C           3.4582711     0.5092745     1.1021573
O           2.2933585     0.5754972     1.8143771
H           1.5815153     0.4336357     1.1593241
C           3.4535494    -0.0593754    -0.1876725
C           4.6351256    -0.0586558    -0.9322803
H           4.6337595    -0.4974075    -1.9284135
C           5.8084437     0.4881780    -0.4062480
H           6.7191418     0.4865492    -0.9981853
18
334_C7H9NO_0-4-13-10 (-60,) energy =    -402.1222959
C           1.7586617    -1.8728257    -0.0199357
H           1.5903209    -1.6379818     1.0320538
H           2.4293058    -2.7460904    -0.0622329
H           0.8000950    -2.1455687    -0.4721855
N           2.2942942    -0.6981825    -0.7231014
H           2.3655081    -0.8694240    -1.7201384
C           5.8054790     1.0268646     0.8852418
H           6.7052712     1.4541054     1.3186270
C           4.6347640     0.9651048     1.6427663
H           4.5918739     1.3567518     2.6545613
C           3.4732764     0.4278181     1.0929630
O           2.3152784     0.4586850     1.8333161
H           1.5801568     0.4480554     1.1946131
C           3.4709097    -0.0902738    -0.2191692
C           4.6510042    -0.0044554    -0.9680159
H           4.6606168    -0.4056096    -1.9799586
C           5.8069208     0.5646898    -0.4313253
H           6.7090115     0.6221293    -1.0338221
18
334_C7H9NO_0-4-13-10 (-45,) energy =    -402.1194459
C           1.3574304    -1.6404762    -0.2791813
H           0.8638934    -0.6999379    -0.5195295
H           1.2265963    -1.8336000     0.7987131
H           0.8656473    -2.4441481    -0.8356211
N           2.7596921    -1.6001326    -0.6943936
H           3.1481268    -2.5333780    -0.7664145
C           5.6570114     0.9768216     1.0172878
H           6.4006314     1.6406626     1.4478647
C           4.3798247     1.4570027     0.7223509
H           4.1306390     2.5000113     0.9159040
C           3.4073498     0.6311504     0.1594529
O           2.1656217     1.1176604    -0.1827147
H           2.1400801     2.0620376     0.0356027
C           3.6859224    -0.7314079    -0.1003643
C           4.9773527    -1.1904385     0.2084622
H           5.2101826    -2.2365970     0.0168381
C           5.9563495    -0.3560716     0.7461147
H           6.9420821    -0.7565604     0.9650165
18
334_C7H9NO_0-4-13-10 (-30,) energy =    -402.1186128
C           1.3329159    -1.6146959    -0.3815661
H           0.9055728    -0.7332285    -0.8577389
H           1.0458737    -1.6018645     0.6821258
H           0.8971139    -2.5053545    -0.8442936
N           2.7757314    -1.6711122    -0.5937453
H           3.1349009    -2.6162598    -0.5621044
C           5.6802545     0.9831364     0.9788794
H           6.4282436     1.6615171     1.3777262
C           4.3834139     1.4367848     0.7341135
H           4.1214144     2.4749053     0.9374043
C           3.4005580     0.5924853     0.2182193
O           2.1339058     1.0611151    -0.0600606
H           2.0967183     1.9957655     0.1948640
C           3.6932807    -0.7640822    -0.0588505
C           5.0074501    -1.1963025     0.1976186
H           5.2527785    -2.2371103    -0.0072141
C           5.9903689    -0.3456152     0.6981698
H           6.9907367    -0.7295652     0.8769934
18
334_C7H9NO_0-4-13-10 (-15,) energy =    -402.1176312
C           1.3193156    -1.5850081    -0.4445456
H           0.9974640    -0.7401481    -1.0535092
H           0.8899918    -1.4621659     0.5613266
H           0.9117152    -2.5011330    -0.8830592
N           2.7696969    -1.7075641    -0.4511422
H           3.0994277    -2.6561353    -0.3431713
C           5.7039696     1.0163524     0.9297211
H           6.4619086     1.7099914     1.2804534
C           4.3903148     1.4485958     0.7435859
H           4.1233008     2.4848296     0.9504118
C           3.3918876     0.5840559     0.2957129
O           2.1000982     1.0298850     0.1013348
H           2.0658200     1.9655808     0.3523130
C           3.6895909    -0.7706491     0.0125313
C           5.0223284    -1.1812995     0.2082490
H           5.2731285    -2.2191721    -0.0042868
C           6.0154413    -0.3133251     0.6543948
H           7.0281937    -0.6830568     0.7881381
18
334_C7H9NO_0-4-13-10 (0,) energy =    -402.1168159
C           1.3107205    -1.4975271    -0.4508162
H           1.0652590    -0.8680295    -1.3176938
H           0.8409076    -1.0544822     0.4294386
H           0.8726880    -2.4879241    -0.6097892
N           2.7368742    -1.6786388    -0.2476487
H           3.1295751    -2.5183811    -0.6438774
C           5.7481460     1.0591947     0.9068025
H           6.5250885     1.7563465     1.2049686
C           4.4255841     1.4903164     0.7895470
H           4.1717354     2.5308002     0.9917375
C           3.4051803     0.6226656     0.4035587
O           2.1023863     1.0631014     0.2786517
H           2.0898014     2.0147539     0.4624011
C           3.6835303    -0.7394384     0.1340652
C           5.0250176    -1.1497634     0.2609630
H           5.2602529    -2.1935690     0.0604631
C           6.0419262    -0.2753034     0.6357922
H           7.0605698    -0.6443534     0.7167436
18
334_C7H9NO_0-4-13-10 (15,) energy =    -402.1176312
C           1.3316530    -1.4441983    -0.5102366
H           1.2427279    -0.8585341    -1.4377416
H           0.7820990    -0.9210086     0.2723736
H           0.8588399    -2.4179321    -0.6714869
N           2.7072255    -1.6907251    -0.1030720
H           3.1090395    -2.5246724    -0.5071149
C           5.7650956     1.0796523     0.8514333
H           6.5535944     1.7837774     1.0986145
C           4.4385094     1.5074393     0.7853710
H           4.1919579     2.5506609     0.9822398
C           3.4015710     0.6300753     0.4694062
O           2.0922745     1.0646605     0.4232423
H           2.0860509     2.0155366     0.6116420
C           3.6710295    -0.7346115     0.2066707
C           5.0174481    -1.1406309     0.2802177
H           5.2466350    -2.1863741     0.0823775
C           6.0486790    -0.2604815     0.5974253
H           7.0703930    -0.6272165     0.6405871
18
334_C7H9NO_0-4-13-10 (30,) energy =    -402.1186128
C           1.3697791    -1.4370341    -0.5830907
H           1.4438875    -0.9407695    -1.5640881
H           0.7599045    -0.8112985     0.0670968
H           0.8602947    -2.3956141    -0.7205774
N           2.6658705    -1.7124905     0.0287519
H           3.0721100    -2.5779064    -0.3020860
C           5.7578950     1.0820845     0.7936894
H           6.5523517     1.7945363     0.9937067
C           4.4271031     1.5019669     0.7867862
H           4.1832561     2.5450291     0.9874025
C           3.3826528     0.6117882     0.5381565
O           2.0686355     1.0281079     0.5753601
H           2.0600134     1.9785818     0.7663079
C           3.6506981    -0.7513849     0.2685998
C           5.0004540    -1.1485229     0.2806121
H           5.2282582    -2.1930982     0.0747322
C           6.0395275    -0.2593808     0.5452354
H           7.0649233    -0.6181166     0.5440005
18
334_C7H9NO_0-4-13-10 (45,) energy =    -402.1194461
C           1.4183100    -1.4423254    -0.6435885
H           1.6465333    -1.1321916    -1.6769916
H           0.8190818    -0.6614306    -0.1775883
H           0.8247041    -2.3607169    -0.6824281
N           2.6125660    -1.7135217     0.1566726
H           3.0105661    -2.6172728    -0.0707412
C           5.7512852     1.0743439     0.7376189
H           6.5535727     1.7889010     0.8949530
C           4.4213040     1.4934815     0.8042085
H           4.1871566     2.5348884     1.0234857
C           3.3692334     0.5977940     0.6163290
O           2.0573647     0.9981121     0.7368491
H           2.0480595     1.9442968     0.9485599
C           3.6282466    -0.7617390     0.3227494
C           4.9749219    -1.1569263     0.2585447
H           5.1931551    -2.1991368     0.0316173
C           6.0251009    -0.2653368     0.4729119
H           7.0505433    -0.6192763     0.4160149
18
334_C7H9NO_0-4-13-10 (60,) energy =    -402.1196418
C           1.4902296    -1.4433279    -0.7286000
H           1.8629781    -1.3635346    -1.7634214
H           0.9546839    -0.5259451    -0.4825649
H           0.7852373    -2.2788357    -0.6760548
N           2.5524649    -1.6736471     0.2558071
H           2.9357902    -2.6072398     0.1451288
C           5.7371255     1.0849962     0.7087298
H           6.5467872     1.7962960     0.8426569
C           4.4122082     1.5079780     0.8391549
H           4.1911423     2.5462873     1.0843014
C           3.3548289     0.6124702     0.6854238
O           2.0469635     0.9986448     0.8550840
H           2.0352920     1.9371439     1.0988520
C           3.6028922    -0.7405645     0.3576742
C           4.9407849    -1.1393321     0.2285048
H           5.1470913    -2.1786418    -0.0213238
C           6.0006577    -0.2495341     0.4115100
H           7.0232785    -0.6003866     0.3064551
18
334_C7H9NO_0-4-13-10 (75,) energy =    -402.1184133
C           1.5639350    -1.4875088    -0.7933597
H           2.0593032    -1.5848782    -1.7736280
H           1.0763554    -0.5108726    -0.7473908
H           0.7900005    -2.2576049    -0.7129435
N           2.4824384    -1.6219096     0.3449782
H           2.8486926    -2.5703621     0.3668866
C           5.7251988     1.0836814     0.6855325
H           6.5468242     1.7846531     0.8014979
C           4.4125957     1.5173072     0.8898466
H           4.2146910     2.5505024     1.1727990
C           3.3430491     0.6318389     0.7605561
O           2.0440932     1.0154799     0.9734336
H           2.0390742     1.9502140     1.2318623
C           3.5678172    -0.7118646     0.3865705
C           4.8906886    -1.1215102     0.1850856
H           5.0738351    -2.1577512    -0.0935375
C           5.9663987    -0.2429585     0.3383046
H           6.9810312    -0.5959839     0.1779920
18
334_C7H9NO_0-4-13-10 (90,) energy =    -402.1191893
C           1.8485907    -1.5579320    -1.0321606
H           2.5776723    -1.8706619    -1.7861398
H           1.4590413    -0.5686099    -1.3207771
H           1.0231518    -2.2774366    -1.0425380
N           2.4803098    -1.5821754     0.2971925
H           1.7659747    -1.3452452     0.9830029
C           5.6940679     1.1594972     0.6635483
H           6.5150373     1.8648337     0.7581159
C           4.4034901     1.5522965     1.0244521
H           4.2180947     2.5617746     1.3892030
C           3.3411379     0.6562567     0.8979438
O           2.0466548     0.9861501     1.2247623
H           2.0325553     1.8926253     1.5682286
C           3.5586832    -0.6588910     0.4418160
C           4.8581825    -1.0304552     0.0897686
H           5.0178264    -2.0485874    -0.2544233
C           5.9229035    -0.1324100     0.1907358
H           6.9254879    -0.4450497    -0.0863306
18
334_C7H9NO_0-4-13-10 (105,) energy =    -402.1206590
C           1.9046162    -1.6686981    -1.0577261
H           2.6841975    -2.1206562    -1.6781766
H           1.5824876    -0.7329299    -1.5431788
H           1.0565431    -2.3605274    -1.0303249
N           2.4060914    -1.4815721     0.3101856
H           1.6465578    -1.1349812     0.8903021
C           5.6980328     1.1595006     0.6744573
H           6.5381774     1.8407495     0.7747817
C           4.4279449     1.5629095     1.0923700
H           4.2757932     2.5590014     1.5060514
C           3.3411481     0.6992453     0.9586602
O           2.0632217     1.0449548     1.3370889
H           2.0821192     1.9313366     1.7287391
C           3.5101356    -0.5995481     0.4378605
C           4.7913846    -0.9838220     0.0300844
H           4.9241041    -1.9889539    -0.3609136
C           5.8786620    -0.1149772     0.1375821
H           6.8641058    -0.4394110    -0.1841771
18
334_C7H9NO_0-4-13-10 (120,) energy =    -402.1221216
C           1.9433136    -1.7789771    -1.0630152
H           2.7253708    -2.3966658    -1.5140216
H           1.7493654    -0.9290344    -1.7376919
H           1.0381386    -2.3906628    -0.9985009
N           2.3328896    -1.3762659     0.2904897
H           1.5445378    -0.9455650     0.7630432
C           5.6985858     1.1576671     0.6996240
H           6.5556639     1.8142856     0.8173104
C           4.4449174     1.5641717     1.1640304
H           4.3211998     2.5399833     1.6320077
C           3.3378446     0.7332106     1.0097453
O           2.0740277     1.0850614     1.4328775
H           2.1168568     1.9548402     1.8578883
C           3.4622523    -0.5404904     0.4150405
C           4.7273503    -0.9280685    -0.0418371
H           4.8392714    -1.9094216    -0.4941387
C           5.8356593    -0.0896577     0.0927206
H           6.8055019    -0.4191126    -0.2691568
18
334_C7H9NO_0-4-13-10 (135,) energy =    -402.1236811
C           1.9813960    -1.8611140    -1.0317515
H           2.6906503    -2.6656504    -1.2515407
H           2.0067062    -1.1462044    -1.8702716
H           0.9860564    -2.3120823    -0.9830588
N           2.2766300    -1.2510947     0.2612444
H           1.4752501    -0.7513044     0.6289112
C           5.7226803     1.1534963     0.7229555
H           6.5987327     1.7807616     0.8582538
C           4.4873708     1.5644225     1.2344069
H           4.3967811     2.5150942     1.7584100
C           3.3583070     0.7715353     1.0607085
O           2.1102970     1.1279793     1.5276812
H           2.1739275     1.9897719     1.9658969
C           3.4340924    -0.4706065     0.3912662
C           4.6782382    -0.8595798    -0.1211220
H           4.7600556    -1.8070025    -0.6451318
C           5.8114433    -0.0587700     0.0433576
H           6.7631593    -0.3908420    -0.3619273
18
334_C7H9NO_0-4-13-10 (150,) energy =    -402.1251019
C           2.0470420    -1.9615032    -1.0118094
H           2.7046373    -2.8383301    -1.0056163
H           2.2290036    -1.4075686    -1.9474867
H           1.0170942    -2.3284953    -1.0155711
N           2.2475628    -1.1572691     0.1826102
H           1.4303177    -0.6271558     0.4572138
C           5.7323801     1.1558044     0.7459709
H           6.6181631     1.7616159     0.9115608
C           4.5043399     1.5542773     1.2878722
H           4.4302679     2.4730473     1.8683759
C           3.3650569     0.7879821     1.0802348
O           2.1228410     1.1302763     1.5736572
H           2.1938449     1.9767371     2.0397909
C           3.4167195    -0.4125083     0.3337980
C           4.6512291    -0.7878092    -0.2123130
H           4.7178302    -1.6974661    -0.8005861
C           5.7978145    -0.0146851    -0.0035291
H           6.7414678    -0.3357558    -0.4358189
18
334_C7H9NO_0-4-13-10 (165,) energy =    -402.1256168
C           2.0736880    -2.0288163    -0.9726460
H           2.7292825    -2.8887001    -0.7892961
H           2.3096684    -1.6317257    -1.9743911
H           1.0438831    -2.3956075    -0.9785020
N           2.2106669    -1.0487675     0.0840611
H           1.3832663    -0.5083854     0.2950861
C           5.7434310     1.1415108     0.7804884
H           6.6427059     1.7147329     0.9846998
C           4.5204560     1.5383026     1.3376115
H           4.4657491     2.4215695     1.9728350
C           3.3660029     0.8113239     1.0851643
O           2.1283537     1.1508184     1.5918401
H           2.2150444     1.9686773     2.1042318
C           3.3917192    -0.3415211     0.2636989
C           4.6210906    -0.7174731    -0.2944656
H           4.6712475    -1.5913916    -0.9356768
C           5.7848954     0.0143889    -0.0329931
H           6.7234115    -0.3052744    -0.4774621
18
334_C7H9NO_0-4-13-10 (180,) energy =    -402.1249735
C           2.0985906    -2.0690851    -0.9514788
H           2.7405906    -2.8947844    -0.6140243
H           2.3738987    -1.8343467    -1.9927748
H           1.0650691    -2.4246764    -0.9464397
N           2.2032642    -0.9328287    -0.0714115
H           1.3622143    -0.4836116     0.2526128
C           5.7487635     1.1415648     0.8314832
H           6.6519307     1.6880774     1.0853063
C           4.5191532     1.5293831     1.3822444
H           4.4646720     2.3759842     2.0657131
C           3.3598358     0.8368660     1.0679797
O           2.1159379     1.1633290     1.5708567
H           2.2045771     1.9434246     2.1386567
C           3.3843487    -0.2686811     0.1822822
C           4.6219211    -0.6416820    -0.3623898
H           4.6713774    -1.4833123    -1.0457142
C           5.7903533     0.0566270    -0.0374028
H           6.7339909    -0.2573639    -0.4752591
