22
002_C11H9NO_0-3-4-10 (-165,) energy =    -554.5542575
N           0.3575436    -0.3190167     2.1738141
C          -0.9558336    -0.2191889     1.9370515
C          -1.5042833    -0.0185297     0.6719803
C           1.1770674    -0.2239931     1.1326757
O           2.4975438    -0.3775566     1.4719615
C          -0.6241659     0.0729523    -0.4081514
C           5.6348851     0.6961374    -1.0539033
C           4.7646705     1.6793666    -0.5760789
C           0.7454504    -0.0326562    -0.1888715
C           3.6952766     1.3348224     0.2506982
C           3.4988921    -0.0066946     0.5875027
C           4.3613021    -0.9971713     0.1190217
C           5.4327311    -0.6394888    -0.7012930
H          -1.5987237    -0.3029994     2.8118921
H          -2.5784184     0.0595686     0.5390170
H          -0.9986849     0.2195879    -1.4178397
H           6.4690501     0.9711534    -1.6929982
H           4.9228944     2.7217657    -0.8390138
H           1.4544763     0.0241262    -1.0060232
H           3.0216122     2.0907880     0.6423290
H           4.1873710    -2.0283978     0.4095513
H           6.1087361    -1.4084528    -1.0650667
22
002_C11H9NO_0-3-4-10 (-150,) energy =    -554.5540577
N           0.4059771    -0.3091139     2.1478234
C          -0.9024514    -0.0787941     1.9746913
C          -1.4929631     0.1376367     0.7321012
C           1.1700825    -0.3401976     1.0631343
O           2.4843899    -0.6453725     1.3196941
C          -0.6692019     0.0991884    -0.3958312
C           5.6597112     0.7742121    -0.9804683
C           4.6699019     1.6629681    -0.5540593
C           0.6903207    -0.1468962    -0.2413429
C           3.5859293     1.2106945     0.1985615
C           3.4936776    -0.1480724     0.5134250
C           4.4766206    -1.0456275     0.0952837
C           5.5605682    -0.5784052    -0.6488124
H          -1.5020970    -0.0641904     2.8833145
H          -2.5585489     0.3262106     0.6506833
H          -1.0821710     0.2506572    -1.3895969
H           6.5032841     1.1344929    -1.5621606
H           4.7445172     2.7191959    -0.7984417
H           1.3598517    -0.1956526    -1.0923659
H           2.8232920     1.8996681     0.5476605
H           4.3809004    -2.0926400     0.3647289
H           6.3273335    -1.2770995    -0.9722253
22
002_C11H9NO_0-3-4-10 (-135,) energy =    -554.5535495
N           0.4755967    -0.2751537     2.0961018
C          -0.8197125     0.0550848     1.9881342
C          -1.4694633     0.2532192     0.7726701
C           1.1582590    -0.4325383     0.9703426
O           2.4573845    -0.8509825     1.1415372
C          -0.7282964     0.0856215    -0.4005990
C           5.6848815     0.8428205    -0.8839395
C           4.6128383     1.6543422    -0.5079259
C           0.6128936    -0.2680163    -0.3113739
C           3.5098008     1.1164232     0.1565103
C           3.4839415    -0.2532785     0.4344112
C           4.5507484    -1.0756001     0.0657648
C           5.6499476    -0.5220952    -0.5894332
H          -1.3560702     0.1705624     2.9283503
H          -2.5194527     0.5264139     0.7452613
H          -1.1922147     0.2191108    -1.3741916
H           6.5408976     1.2706367    -1.3976257
H           4.6347076     2.7194355    -0.7227218
H           1.2247298    -0.4198945    -1.1937183
H           2.6850109     1.7504308     0.4651413
H           4.5034501    -2.1336464     0.3031020
H           6.4798258    -1.1632313    -0.8741831
22
002_C11H9NO_0-3-4-10 (-120,) energy =    -554.5529388
N           0.5444329    -0.2256701     2.0043305
C          -0.7332063     0.1818960     1.9616251
C          -1.4553491     0.3408180     0.7815584
C           1.1305267    -0.5022904     0.8480425
O           2.4113275    -1.0017273     0.9361562
C          -0.8138579     0.0500230    -0.4258183
C           5.7031362     0.9046427    -0.7741130
C           4.5744588     1.6582179    -0.4499116
C           0.5065862    -0.3842326    -0.4010906
C           3.4494670     1.0535942     0.1143490
C           3.4606508    -0.3246021     0.3457339
C           4.5858403    -1.0901020     0.0278664
C           5.7033677    -0.4708753    -0.5278692
H          -1.1927094     0.3947033     2.9251487
H          -2.4864665     0.6787186     0.8071396
H          -1.3381285     0.1514350    -1.3722011
H           6.5747802     1.3836319    -1.2104395
H           4.5656383     2.7303768    -0.6276565
H           1.0474750    -0.6332641    -1.3076943
H           2.5809811     1.6459228     0.3820316
H           4.5659241    -2.1571857     0.2253792
H           6.5770461    -1.0688151    -0.7730762
22
002_C11H9NO_0-3-4-10 (-105,) energy =    -554.5526231
N           0.6471809    -0.1750245     1.9120574
C          -0.6110354     0.2888846     1.9537575
C          -1.4309694     0.3999163     0.8329770
C           1.1135585    -0.5515978     0.7296187
O           2.3747180    -1.1093985     0.7208938
C          -0.9150001     0.0023315    -0.4031898
C           5.7318596     0.9506642    -0.6516059
C           4.5603450     1.6613158    -0.3916109
C           0.3857222    -0.4870123    -0.4641666
C           3.4132414     1.0087938     0.0663421
C           3.4482938    -0.3746168     0.2577283
C           4.6171919    -1.0984904     0.0036923
C           5.7535875    -0.4320329    -0.4475736
H          -0.9727210     0.5858631     2.9364495
H          -2.4420634     0.7834999     0.9263577
H          -1.5190566     0.0660463    -1.3041378
H           6.6192830     1.4669455    -1.0058345
H           4.5321422     2.7378245    -0.5386354
H           0.8355672    -0.8188793    -1.3937037
H           2.5109020     1.5702393     0.2824732
H           4.6138505    -2.1715647     0.1667851
H           6.6603358    -0.9982106    -0.6433710
22
002_C11H9NO_0-3-4-10 (-90,) energy =    -554.5527962
N           0.7430375    -0.1150171     1.7752699
C          -0.4978775     0.3754847     1.9076677
C          -1.4246289     0.4256104     0.8677540
C           1.0874752    -0.5718139     0.5784593
O           2.3296713    -1.1603891     0.4708427
C          -1.0379603    -0.0607535    -0.3830508
C           5.7680969     0.9846805    -0.5195261
C           4.5687467     1.6735289    -0.3424042
C           0.2469389    -0.5726474    -0.5391124
C           3.3946425     0.9949111    -0.0064743
C           3.4320702    -0.3924822     0.1496014
C           4.6283932    -1.0955592    -0.0219864
C           5.7896393    -0.4033736    -0.3550021
H          -0.7578934     0.7421665     2.8989426
H          -2.4177656     0.8306447     1.0346004
H          -1.7271899    -0.0449584    -1.2228802
H           6.6759929     1.5210872    -0.7794529
H           4.5379432     2.7533942    -0.4618954
H           0.6020685    -0.9699411    -1.4837296
H           2.4695815     1.5405512     0.1421523
H           4.6257318    -2.1729472     0.1097635
H           6.7173960    -0.9537262    -0.4872159
22
002_C11H9NO_0-3-4-10 (-75,) energy =    -554.5535578
N           0.8474875    -0.0462175     1.6290256
C          -0.3767409     0.4444698     1.8666775
C          -1.4101064     0.4302957     0.9307511
C           1.0712670    -0.5587341     0.4250853
O           2.2936439    -1.1532281     0.2045891
C          -1.1522854    -0.1190584    -0.3268244
C           5.8169595     1.0008933    -0.3840330
C           4.6069193     1.6905403    -0.3114979
C           0.1167305    -0.6252788    -0.5940674
C           3.4047966     1.0101412    -0.1043681
C           3.4261784    -0.3794189     0.0319872
C           4.6319220    -1.0830049    -0.0360397
C           5.8214570    -0.3897889    -0.2449332
H          -0.5347908     0.8612865     2.8597098
H          -2.3853754     0.8351256     1.1818554
H          -1.9267502    -0.1527004    -1.0882020
H           6.7463584     1.5393960    -0.5447422
H           4.5893898     2.7722457    -0.4160007
H           0.3769688    -1.0655139    -1.5503279
H           2.4698855     1.5554094    -0.0418208
H           4.6148351    -2.1624516     0.0761791
H           6.7568011    -0.9407083    -0.2971080
22
002_C11H9NO_0-3-4-10 (-60,) energy =    -554.5546909
N           0.9314867     0.0266305     1.4707166
C          -0.2790755     0.4890830     1.8107962
C          -1.4026929     0.3959495     0.9907499
C           1.0509103    -0.5322742     0.2723759
O           2.2571367    -1.1019499    -0.0578530
C          -1.2538228    -0.2054415    -0.2610553
C           5.8519041     1.0041685    -0.2508717
C           4.6498975     1.7122992    -0.2789313
C          -0.0008889    -0.6797568    -0.6377219
C           3.4250058     1.0475224    -0.1984952
C           3.4152893    -0.3440603    -0.0838285
C           4.6109617    -1.0651174    -0.0528589
C           5.8256058    -0.3880787    -0.1390067
H          -0.3492946     0.9481036     2.7953087
H          -2.3613696     0.7806043     1.3238288
H          -2.1000046    -0.3004623    -0.9360663
H           6.7994565     1.5312291    -0.3140986
H           4.6579449     2.7955986    -0.3663873
H           0.1774372    -1.1535512    -1.5966213
H           2.4951442     1.6044727    -0.2179057
H           4.5683017    -2.1458844     0.0375659
H           6.7540080    -0.9524763    -0.1146781
22
002_C11H9NO_0-3-4-10 (-45,) energy =    -554.5558975
N           0.9890578     0.1136540     1.3179764
C          -0.2087662     0.5319664     1.7505280
C          -1.3945575     0.3446303     1.0440041
C           1.0303084    -0.4939814     0.1387368
O           2.2221005    -1.0129507    -0.2967035
C          -1.3266655    -0.3076669    -0.1905632
C           5.8750297     0.9936914    -0.1307115
C           4.6974164     1.7351085    -0.2436954
C          -0.0918019    -0.7361886    -0.6636208
C           3.4548986     1.1014505    -0.2781715
C           3.4011175    -0.2910044    -0.1905674
C           4.5695960    -1.0448641    -0.0765021
C           5.8046419    -0.3985085    -0.0500536
H          -0.2124100     1.0327842     2.7170591
H          -2.3384040     0.6971315     1.4472780
H          -2.2243794    -0.4750751    -0.7794751
H           6.8376459     1.4962267    -0.1054964
H           4.7407192     2.8190518    -0.3096190
H           0.0242242    -1.2426053    -1.6153741
H           2.5427659     1.6808294    -0.3652518
H           4.4925874    -2.1255903    -0.0121859
H           6.7135380    -0.9876176     0.0382622
22
002_C11H9NO_0-3-4-10 (-30,) energy =    -554.5568631
N           1.0221040     0.2282977     1.1853684
C          -0.1624768     0.5862743     1.7028949
C          -1.3868758     0.2929968     1.1097328
C           1.0071469    -0.4303002     0.0344424
O           2.1836533    -0.8797549    -0.5005185
C          -1.3768868    -0.4100974    -0.0999246
C           5.8912152     0.9690635    -0.0272160
C           4.7545554     1.7598254    -0.2115085
C          -0.1607977    -0.7808211    -0.6584134
C           3.4948334     1.1768045    -0.3445032
C           3.3827033    -0.2134696    -0.2820649
C           4.5084459    -1.0151447    -0.0991916
C           5.7639308    -0.4197667     0.0253284
H          -0.1187256     1.1300781     2.6449140
H          -2.3155539     0.6037028     1.5772580
H          -2.3067161    -0.6610235    -0.6032037
H           6.8682038     1.4329758     0.0737350
H           4.8457896     2.8417972    -0.2567693
H          -0.0904180    -1.3224048    -1.5951503
H           2.6125867     1.7902397    -0.4879687
H           4.3855775    -2.0928571    -0.0601285
H           6.6411627    -1.0453060     0.1669001
22
002_C11H9NO_0-3-4-10 (-15,) energy =    -554.5573785
N           1.0380493     0.3432640     1.0540712
C          -0.1324924     0.6338677     1.6438052
C          -1.3677122     0.2265542     1.1523118
C           0.9946501    -0.3680119    -0.0628800
O           2.1555454    -0.7300488    -0.6867659
C          -1.3865080    -0.5270434    -0.0279676
C           5.9058431     0.9340930     0.0601720
C           4.8185380     1.7787902    -0.1777599
C          -0.1891018    -0.8343636    -0.6571644
C           3.5460948     1.2539590    -0.3996271
C           3.3707800    -0.1304078    -0.3719518
C           4.4456123    -0.9853999    -0.1376834
C           5.7158211    -0.4481899     0.0764929
H          -0.0643224     1.2206635     2.5581522
H          -2.2834083     0.4887613     1.6721130
H          -2.3271435    -0.8674709    -0.4524462
H           6.8941372     1.3519426     0.2297386
H           4.9599159     2.8561260    -0.1952584
H          -0.1420916    -1.4120195    -1.5736616
H           2.6997899     1.9053816    -0.5855217
H           4.2746922    -2.0572685    -0.1304388
H           6.5551453    -1.1140851     0.2579297
22
002_C11H9NO_0-3-4-10 (0,) energy =    -554.5573315
N           1.0233399     0.4788736     0.9371830
C          -0.1337060     0.6984125     1.5830250
C          -1.3534128     0.1642230     1.1850624
C           0.9825235    -0.2955546    -0.1363237
O           2.1260618    -0.5651172    -0.8341294
C          -1.3708869    -0.6488710     0.0443041
C           5.9115537     0.8900732     0.1411406
C           4.8792093     1.7921988    -0.1290072
C          -0.1877690    -0.8895894    -0.6375076
C           3.5965519     1.3335650    -0.4267737
C           3.3558443    -0.0404474    -0.4434024
C           4.3750060    -0.9523749    -0.1789352
C           5.6564245    -0.4815389     0.1125876
H          -0.0664761     1.3363405     2.4625547
H          -2.2587166     0.3753212     1.7447642
H          -2.3001056    -1.0894616    -0.3068882
H           6.9087549     1.2554267     0.3699045
H           5.0721242     2.8614820    -0.1112621
H          -0.1406077    -1.5111518    -1.5248090
H           2.7898825     2.0261482    -0.6375894
H           4.1545954    -2.0147846    -0.2097605
H           6.4538301    -1.1906524     0.3176831
22
002_C11H9NO_0-3-4-10 (15,) energy =    -554.5573792
N           0.9064580     0.8459896     0.0179979
C          -0.3264589     1.3594130     0.1552516
C          -1.4594171     0.5931446     0.4050949
C           1.0338026    -0.4674082     0.1372215
O           2.2568502    -1.0535462    -0.0310309
C          -1.2988447    -0.7930340     0.5237100
C           5.9079546     0.9625694    -0.0127649
C           4.9967497     1.1894027     1.0219380
C          -0.0329547    -1.3444763     0.3913767
C           3.7554801     0.5544551     1.0276883
C           3.4302932    -0.3065247    -0.0214492
C           4.3288512    -0.5437824    -1.0593829
C           5.5709863     0.0926009    -1.0504605
H          -0.3983960     2.4408543     0.0536728
H          -2.4331193     1.0616550     0.5043361
H          -2.1537251    -1.4343935     0.7204360
H           6.8738173     1.4597447    -0.0079331
H           5.2533517     1.8630284     1.8351661
H           0.1521051    -2.4095802     0.4759600
H           3.0457830     0.7268021     1.8288063
H           4.0462827    -1.2249454    -1.8558067
H           6.2731769    -0.0929069    -1.8587403
22
002_C11H9NO_0-3-4-10 (30,) energy =    -554.5568644
N           0.8507929     0.8764330    -0.1443870
C          -0.3708650     1.3779939     0.0911804
C          -1.4601232     0.6070876     0.4858859
C           1.0147123    -0.4280701     0.0281669
O           2.2232204    -0.9983359    -0.2653620
C          -1.2634944    -0.7682295     0.6531181
C           5.9174287     0.9101518     0.0678842
C           4.9414167     1.1409468     1.0401258
C          -0.0040147    -1.3064778     0.4256387
C           3.6855593     0.5421504     0.9452537
C           3.4106310    -0.2881272    -0.1429643
C           4.3746832    -0.5282777    -1.1208165
C           5.6294012     0.0714319    -1.0098871
H          -0.4740977     2.4519729    -0.0535059
H          -2.4284392     1.0660244     0.6570662
H          -2.0828344    -1.4114376     0.9625928
H           6.8934284     1.3797023     0.1510345
H           5.1573266     1.7898971     1.8846922
H           0.2094389    -2.3630417     0.5436175
H           2.9284114     0.7211815     1.7001289
H           4.1297448    -1.1826717    -1.9513921
H           6.3807286    -0.1169810    -1.7720139
22
002_C11H9NO_0-3-4-10 (45,) energy =    -554.5558973
N           0.7805024     0.9227281    -0.3060181
C          -0.4282467     1.3971439     0.0267352
C          -1.4463524     0.6113643     0.5618108
C           1.0078527    -0.3666047    -0.0879947
O           2.2002676    -0.9054225    -0.4964348
C          -1.1859606    -0.7459703     0.7719471
C           5.9312225     0.8439727     0.1508856
C           4.8967736     1.0970126     1.0537704
C           0.0662051    -1.2546648     0.4471080
C           3.6284376     0.5495628     0.8586226
C           3.4012002    -0.2535858    -0.2607082
C           4.4252159    -0.5143532    -1.1717074
C           5.6895989     0.0339232    -0.9604361
H          -0.5849792     2.4587047    -0.1564290
H          -2.4098349     1.0476092     0.8049718
H          -1.9480566    -1.3985384     1.1891808
H           6.9154992     1.2741277     0.3120407
H           5.0744915     1.7241234     1.9234269
H           0.3281216    -2.2968384     0.5922415
H           2.8276364     0.7491754     1.5615427
H           4.2156479    -1.1441553    -2.0304597
H           6.4857836    -0.1710033    -1.6710957
22
002_C11H9NO_0-3-4-10 (60,) energy =    -554.5546912
N           0.6699791     0.9744752    -0.4479085
C          -0.5268628     1.3992306    -0.0210459
C          -1.4461452     0.5868623     0.6412339
C           0.9874190    -0.2906311    -0.1996868
O           2.1660856    -0.7761456    -0.7130958
C          -1.0935708    -0.7430058     0.8819170
C           5.9262660     0.7578528     0.2374736
C           4.8451185     1.0512452     1.0694196
C           0.1512310    -1.1985584     0.4581167
C           3.5665272     0.5727459     0.7778358
C           3.3783907    -0.2045665    -0.3667448
C           4.4513269    -0.5043182    -1.2090116
C           5.7226356    -0.0237619    -0.9023431
H          -0.7604295     2.4413650    -0.2315684
H          -2.4060278     0.9839678     0.9556828
H          -1.7759887    -1.4147852     1.3954518
H           6.9169868     1.1351687     0.4735952
H           4.9916379     1.6578242     1.9592779
H           0.4823054    -2.2186183     0.6181940
H           2.7306532     0.8071705     1.4271337
H           4.2708529    -1.1105847    -2.0909991
H           6.5551464    -0.2591560    -1.5600587
22
002_C11H9NO_0-3-4-10 (75,) energy =    -554.5535579
N           0.5469940     1.0423258    -0.5784007
C          -0.6377574     1.4041700    -0.0671077
C          -1.4364462     0.5609838     0.7043378
C           0.9707227    -0.1875193    -0.3135199
O           2.1383983    -0.6006317    -0.9152609
C          -0.9720206    -0.7298534     0.9647486
C           5.9213040     0.6493099     0.3209050
C           4.8086854     1.0081689     1.0814152
C           0.2608957    -1.1197013     0.4489933
C           3.5226252     0.6205736     0.6983213
C           3.3596495    -0.1352681    -0.4644687
C           4.4656235    -0.4997061    -1.2374374
C           5.7413181    -0.1068569    -0.8406333
H          -0.9621897     2.4176668    -0.2960138
H          -2.3922405     0.9058080     1.0859703
H          -1.5600848    -1.4225925     1.5604946
H           6.9170878     0.9562987     0.6271168
H           4.9343098     1.5977341     1.9858189
H           0.6737629    -2.1085618     0.6153195
H           2.6629651     0.9106369     1.2917241
H           4.3050098    -1.0854942    -2.1369611
H           6.5985098    -0.3923343    -1.4446456
22
002_C11H9NO_0-3-4-10 (90,) energy =    -554.5527962
N           0.4058197     1.1034080    -0.6950856
C          -0.7719821     1.3809857    -0.1173026
C          -1.4363903     0.5068963     0.7413711
C           0.9519783    -0.0737106    -0.4194502
O           2.1148558    -0.3937847    -1.0875872
C          -0.8412753    -0.7261350     1.0170558
C           5.9011474     0.5282361     0.3997432
C           4.7757861     0.9704484     1.0942909
C           0.3819572    -1.0300968     0.4266059
C           3.4890910     0.6872844     0.6294498
C           3.3387513    -0.0512981    -0.5463430
C           4.4587107    -0.4981758    -1.2541647
C           5.7340213    -0.2058705    -0.7781183
H          -1.2010038     2.3513417    -0.3603519
H          -2.3909603     0.7838285     1.1775893
H          -1.3234602    -1.4409084     1.6782750
H           6.8972891     0.7544895     0.7685932
H           4.8913260     1.5466506     2.0086135
H           0.8895755    -1.9731773     0.5973948
H           2.6197954     1.0464836     1.1687712
H           4.3083279    -1.0667996    -2.1663955
H           6.6018248    -0.5549344    -1.3314794
22
002_C11H9NO_0-3-4-10 (105,) energy =    -554.5526224
N           0.2776553     1.1595105    -0.8035244
C          -0.9001503     1.3498074    -0.1898798
C          -1.4379646     0.4643636     0.7415441
C           0.9467485     0.0564877    -0.4983321
O           2.1096947    -0.1661970    -1.2051719
C          -0.7113493    -0.6883057     1.0510397
C           5.8916938     0.4022481     0.4590204
C           4.7769755     0.9219917     1.1165322
C           0.5091556    -0.9050651     0.4197972
C           3.4927381     0.7511192     0.5941521
C           3.3330302     0.0439131    -0.6000070
C           4.4423505    -0.4797683    -1.2708797
C           5.7161740    -0.2961159    -0.7390803
H          -1.4328554     2.2592615    -0.4615613
H          -2.3963821     0.6704244     1.2075354
H          -1.0930917    -1.4102693     1.7677611
H           6.8864269     0.5416430     0.8720800
H           4.9001306     1.4736823     2.0448366
H           1.1118147    -1.7859160     0.6133175
H           2.6321611     1.1724158     1.1021664
H           4.2854498    -1.0201323    -2.1990492
H           6.5760364    -0.7041765    -1.2636823
22
002_C11H9NO_0-3-4-10 (120,) energy =    -554.5529388
N           0.1642503     1.2030136    -0.8861263
C          -1.0207523     1.2938824    -0.2634153
C          -1.4492950     0.4030287     0.7173981
C           0.9510327     0.1924074    -0.5448686
O           2.1186200     0.0802793    -1.2672101
C          -0.5990474    -0.6505093     1.0653168
C           5.8898230     0.2746933     0.5017310
C           4.8067216     0.8780436     1.1418930
C           0.6284495    -0.7678969     0.4232972
C           3.5273289     0.8248239     0.5852183
C           3.3388970     0.1496409    -0.6237096
C           4.4156739    -0.4568113    -1.2762961
C           5.6874875    -0.3884841    -0.7115214
H          -1.6505005     2.1279423    -0.5676233
H          -2.4176028     0.5284893     1.1914082
H          -0.8926052    -1.3754860     1.8196397
H           6.8819485     0.3233214     0.9409326
H           4.9533919     1.4048760     2.0811089
H           1.3209201    -1.5721107     0.6475312
H           2.6910805     1.3108068     1.0764923
H           4.2373089    -0.9682141    -2.2168922
H           6.5231901    -0.8601020    -1.2215821
22
002_C11H9NO_0-3-4-10 (135,) energy =    -554.5535494
N           0.0593283     1.2233573    -0.9506944
C          -1.1364116     1.2098245    -0.3435917
C          -1.4784912     0.3218392     0.6728946
C           0.9501127     0.3229643    -0.5583397
O           2.1259918     0.3311741    -1.2720519
C          -0.5217360    -0.6156815     1.0724600
C           5.8851379     0.1491541     0.5234447
C           4.8530341     0.8337310     1.1679234
C           0.7199982    -0.6264270     0.4481331
C           3.5788736     0.8998765     0.6025381
C           3.3419198     0.2611374    -0.6180522
C           4.3661363    -0.4249846    -1.2741123
C           5.6362721    -0.4746603    -0.7012444
H          -1.8493819     1.9554121    -0.6911490
H          -2.4603018     0.3608876     1.1337477
H          -0.7437687    -1.3367157     1.8545931
H           6.8746391     0.1058336     0.9691735
H           5.0387732     1.3315929     2.1159060
H           1.4894677    -1.3418488     0.7165197
H           2.7816701     1.4475873     1.0944532
H           4.1515903    -0.9036250    -2.2243228
H           6.4323955    -1.0077382    -1.2139366
22
002_C11H9NO_0-3-4-10 (150,) energy =    -554.5540573
N          -0.0229547     1.2353997    -0.9920328
C          -1.2283474     1.1076845    -0.4212278
C          -1.5055468     0.2160105     0.6120394
C           0.9516769     0.4537138    -0.5442974
O           2.1364322     0.6002408    -1.2234350
C          -0.4645535    -0.5975619     1.0667130
C           5.8745039     0.0290462     0.5330967
C           4.9201388     0.8096921     1.1896710
C           0.7926289    -0.4886662     0.4832666
C           3.6547769     0.9991584     0.6338944
C           3.3463161     0.3887365    -0.5852648
C           4.2912009    -0.3917025    -1.2522663
C           5.5561268    -0.5651905    -0.6895750
H          -2.0067381     1.7595696    -0.8143580
H          -2.5001175     0.1589014     1.0424208
H          -0.6309748    -1.3179239     1.8632370
H           6.8594635    -0.1104751     0.9691694
H           5.1625781     1.2848203     2.1364496
H           1.6222802    -1.1099540     0.8003338
H           2.9151122     1.6190974     1.1306386
H           4.0239002    -0.8438521    -2.2021001
H           6.2931727    -1.1708083    -1.2098230
22
002_C11H9NO_0-3-4-10 (165,) energy =    -554.5542575
N          -0.0769098     1.2441178    -1.0044287
C          -1.2874465     0.9853999    -0.4958548
C          -1.5203082     0.0710528     0.5294301
C           0.9558631     0.5806067    -0.4967407
O           2.1448962     0.8862453    -1.1092275
C          -0.4206324    -0.6185941     1.0439806
C           5.8577269    -0.0791644     0.5212849
C           5.0180078     0.8123063     1.1939542
C           0.8476243    -0.3711953     0.5288064
C           3.7622896     1.1281935     0.6750500
C           3.3501580     0.5348707    -0.5206853
C           4.1794503    -0.3546697    -1.2027893
C           5.4371732    -0.6571448    -0.6779514
H          -2.1113564     1.5452392    -0.9356614
H          -2.5239959    -0.0956500     0.9067453
H          -0.5466880    -1.3501735     1.8377924
H           6.8366383    -0.3171218     0.9275075
H           5.3440011     1.2729525     2.1225537
H           1.7200522    -0.8961683     0.8988770
H           3.1069300     1.8319569     1.1789401
H           3.8334248    -0.7885876    -2.1355640
H           6.0872730    -1.3471241    -1.2089121
22
002_C11H9NO_0-3-4-10 (180,) energy =    -554.5542371
N           0.3415123    -0.2549985     2.1976086
C          -0.9610410    -0.3509658     1.9081710
C          -1.4794730    -0.2645818     0.6174398
C           1.1819874    -0.0662846     1.1860427
O           2.4904286     0.0181795     1.5888370
C          -0.5776935    -0.0661434    -0.4294472
C           5.6150463     0.6072709    -1.1079383
C           4.9657285     1.7050253    -0.5385219
C           0.7826267     0.0369384    -0.1552569
C           3.9014867     1.5138831     0.3441860
C           3.4943479     0.2150881     0.6498466
C           4.1368275    -0.8902261     0.0917087
C           5.1999916    -0.6878719    -0.7898288
H          -1.6212742    -0.5052857     2.7602691
H          -2.5468188    -0.3495446     0.4411891
H          -0.9272879     0.0085795    -1.4558556
H           6.4448320     0.7603747    -1.7920786
H           5.2897368     2.7143360    -0.7771350
H           1.5070783     0.1909919    -0.9456313
H           3.3909370     2.3531707     0.8061731
H           3.8061494    -1.8886162     0.3607068
H           5.7066971    -1.5451757    -1.2244613
