23
218_C8H11NO2S_0-4-5-18 (-165,) energy =    -914.7869956
C           0.8487861    -1.3422577     0.3856333
H           0.0052186    -2.0104844     0.1978001
H           0.8072578    -0.4807838    -0.2822874
H           0.8505465    -1.0399879     1.4327767
S           2.3205274    -2.3185780     0.0093035
N           3.5736877    -1.1444079     0.1710407
C           3.7422756    -0.6359834     1.5485290
H           4.5454915     0.1037144     1.5230465
H           3.9942453    -1.4199613     2.2732737
H           2.8296846    -0.1302346     1.8746391
O           2.4280064    -3.3505344     1.0536366
O           2.2848403    -2.6966032    -1.4029369
C           7.2342713    -2.3670615    -1.5939847
H           8.1751398    -2.6631593    -2.0498385
C           6.4745409    -1.3425787    -2.1622138
H           6.8196864    -0.8409612    -3.0620650
C           5.2659295    -0.9632346    -1.5784042
H           4.6565334    -0.1741184    -2.0069529
C           4.8201801    -1.6047168    -0.4210403
C           5.5740593    -2.6384282     0.1466039
H           5.2098721    -3.1542095     1.0293820
C           6.7809510    -3.0151414    -0.4432523
H           7.3638952    -3.8208210    -0.0055642
23
218_C8H11NO2S_0-4-5-18 (-150,) energy =    -914.7883346
C           0.8247427    -1.3165609     0.1639986
H          -0.0394661    -1.9809240     0.0923894
H           0.8683912    -0.6471517    -0.6956320
H           0.7833246    -0.7571236     1.0994781
S           2.2793799    -2.3846052     0.1387850
N           3.5472196    -1.2278569     0.2615751
C           3.7457812    -0.7034973     1.6264559
H           4.4785608     0.1044957     1.5628724
H           4.1003860    -1.4638042     2.3324355
H           2.8095259    -0.2851004     2.0060928
O           2.2321553    -3.2255069     1.3446597
O           2.3808994    -2.9890334    -1.1891155
C           7.1653843    -2.3208358    -1.6610178
H           8.0961356    -2.5859678    -2.1550506
C           6.3918251    -1.2654498    -2.1477081
H           6.7172260    -0.7079912    -3.0217066
C           5.1946200    -0.9269004    -1.5162873
H           4.5762092    -0.1136797    -1.8830279
C           4.7744832    -1.6408808    -0.3927657
C           5.5460932    -2.7011454     0.0959421
H           5.2034373    -3.2648460     0.9589097
C           6.7392417    -3.0395851    -0.5419602
H           7.3337073    -3.8680127    -0.1667595
23
218_C8H11NO2S_0-4-5-18 (-135,) energy =    -914.7885062
C           0.9129158    -1.2997643    -0.0512890
H           0.0159871    -1.9217715    -0.0982801
H           1.0838967    -0.7953243    -1.0027225
H           0.8251519    -0.5797237     0.7643413
S           2.2997327    -2.4101949     0.2636069
N           3.6007505    -1.2966460     0.3655427
C           3.8206759    -0.7342962     1.7093906
H           4.5052503     0.1114759     1.6059028
H           4.2424823    -1.4607437     2.4142206
H           2.8760256    -0.3660531     2.1183036
O           2.0780391    -3.0386642     1.5730515
O           2.5099553    -3.2210763    -0.9355577
C           7.1561087    -2.2648529    -1.7267425
H           8.0718150    -2.4985574    -2.2629347
C           6.3510472    -1.2051131    -2.1479248
H           6.6372764    -0.6119320    -3.0120835
C           5.1729972    -0.9068768    -1.4620927
H           4.5330501    -0.0881751    -1.7767474
C           4.8014959    -1.6664946    -0.3508754
C           5.6077290    -2.7289295     0.0725928
H           5.3070955    -3.3231544     0.9309958
C           6.7816644    -3.0274245    -0.6180166
H           7.4017593    -3.8580504    -0.2924819
23
218_C8H11NO2S_0-4-5-18 (-120,) energy =    -914.7884134
C           0.9863115    -1.3396026    -0.2577153
H           0.0716095    -1.9344455    -0.3148708
H           1.2861789    -0.9996587    -1.2498744
H           0.8460997    -0.4951537     0.4195523
S           2.2798680    -2.4158828     0.3934897
N           3.6135956    -1.3488456     0.4720273
C           3.8717892    -0.7459556     1.7906355
H           4.5332493     0.1112571     1.6394588
H           4.3415425    -1.4452085     2.4932391
H           2.9359371    -0.3936605     2.2294252
O           1.8933132    -2.7905165     1.7590967
O           2.5678857    -3.4306823    -0.6205291
C           7.0887223    -2.2318834    -1.7832819
H           7.9851141    -2.4439396    -2.3596090
C           6.2846786    -1.1409995    -2.1173907
H           6.5523107    -0.5007060    -2.9534468
C           5.1314243    -0.8718809    -1.3791823
H           4.4948211    -0.0272003    -1.6256696
C           4.7822937    -1.6910096    -0.3023584
C           5.5896038    -2.7836651     0.0337622
H           5.3089235    -3.4235618     0.8650887
C           6.7383349    -3.0529972    -0.7089040
H           7.3582631    -3.9070029    -0.4505290
23
218_C8H11NO2S_0-4-5-18 (-105,) energy =    -914.7887778
C           1.0962646    -1.4281892    -0.4523834
H           0.1825822    -2.0204646    -0.5429510
H           1.5326769    -1.2478586    -1.4362488
H           0.8939199    -0.4890309     0.0648046
S           2.2635538    -2.3927511     0.5278491
N           3.6213404    -1.3565567     0.5799753
C           3.9452938    -0.7628778     1.8897133
H           4.5658451     0.1191866     1.7090174
H           4.4912763    -1.4554507     2.5428434
H           3.0284798    -0.4582601     2.3949418
O           1.7232620    -2.4888247     1.8885306
O           2.5989478    -3.5920295    -0.2423396
C           6.9965167    -2.2098961    -1.8342728
H           7.8679272    -2.4135403    -2.4505790
C           6.2095429    -1.0852337    -2.0859787
H           6.4652908    -0.4093297    -2.8973821
C           5.0884193    -0.8277846    -1.2955466
H           4.4667757     0.0444666    -1.4763190
C           4.7541990    -1.6917591    -0.2485177
C           5.5452012    -2.8187062     0.0048238
H           5.2742393    -3.4953517     0.8087577
C           6.6610966    -3.0756583    -0.7904192
H           7.2680492    -3.9556121    -0.5962279
23
218_C8H11NO2S_0-4-5-18 (-90,) energy =    -914.7896504
C           1.2534126    -1.5195496    -0.6413920
H           0.3461356    -2.1156755    -0.7637039
H           1.8263056    -1.5079004    -1.5705757
H           1.0110894    -0.5071752    -0.3162660
S           2.2419502    -2.3139673     0.6398409
N           3.6224922    -1.3052056     0.6722173
C           4.0137817    -0.7696313     1.9897818
H           4.6278108     0.1183658     1.8155191
H           4.5931278    -1.4900283     2.5820504
H           3.1207699    -0.4890000     2.5471923
O           1.5550096    -2.1296192     1.9225111
O           2.5863025    -3.6566227     0.1616086
C           6.8844351    -2.1798678    -1.8877732
H           7.7264109    -2.3883280    -2.5422086
C           6.1320675    -1.0179227    -2.0652321
H           6.3855009    -0.3173811    -2.8561973
C           5.0486056    -0.7546486    -1.2256690
H           4.4542654     0.1464921    -1.3472805
C           4.7176895    -1.6498118    -0.2030881
C           5.4750148    -2.8142004    -0.0235023
H           5.2040374    -3.5147389     0.7587247
C           6.5525821    -3.0760755    -0.8687555
H           7.1331838    -3.9841817    -0.7320543
23
218_C8H11NO2S_0-4-5-18 (-75,) energy =    -914.7903668
C           1.4345421    -1.5671964    -0.7439305
H           0.5346390    -2.1723162    -0.8742228
H           2.1195376    -1.7260289    -1.5785762
H           1.1817154    -0.5120328    -0.6359081
S           2.2189839    -2.1309389     0.7768277
N           3.6353664    -1.1701443     0.7810263
C           4.0964644    -0.7364667     2.1144898
H           4.7826895     0.1015614     1.9661743
H           4.6209251    -1.5311388     2.6616304
H           3.2378205    -0.4030137     2.6968378
O           1.4197928    -1.6778442     1.9197196
O           2.5200160    -3.5594400     0.6149506
C           6.7561882    -2.1290697    -1.9236416
H           7.5618247    -2.3582741    -2.6158048
C           6.0585612    -0.9253924    -2.0371539
H           6.3188148    -0.2133293    -2.8154917
C           5.0219702    -0.6345274    -1.1491167
H           4.4708106     0.2988324    -1.2193460
C           4.6832102    -1.5446767    -0.1417301
C           5.3856251    -2.7513472    -0.0258234
H           5.1069948    -3.4618150     0.7443446
C           6.4164888    -3.0394926    -0.9201299
H           6.9550161    -3.9790939    -0.8326984
23
218_C8H11NO2S_0-4-5-18 (-60,) energy =    -914.7900977
C           1.5922467    -1.7819245    -0.8121129
H           0.6657307    -2.3548890    -0.8900144
H           2.3288601    -2.1583885    -1.5225958
H           1.4039172    -0.7183534    -0.9622582
S           2.1906706    -2.0390665     0.8677964
N           3.6329780    -1.1229989     0.8423145
C           4.1244924    -0.7255447     2.1751065
H           4.8426027     0.0863481     2.0339186
H           4.6189316    -1.5500490     2.7061292
H           3.2831518    -0.3619399     2.7663143
O           1.3004452    -1.3581052     1.8126690
O           2.4435178    -3.4792436     1.0301155
C           6.6572150    -2.0895382    -1.9670027
H           7.4373383    -2.3204567    -2.6872195
C           6.0593847    -0.8273844    -1.9642063
H           6.3718093    -0.0730452    -2.6811293
C           5.0531812    -0.5341117    -1.0436720
H           4.5736937     0.4403821    -1.0297949
C           4.6473956    -1.4997857    -0.1148804
C           5.2526220    -2.7636415    -0.1113720
H           4.9252692    -3.5110042     0.6029664
C           6.2500653    -3.0544581    -1.0435100
H           6.7123170    -4.0377935    -1.0441194
23
218_C8H11NO2S_0-4-5-18 (-45,) energy =    -914.7884534
C           1.7585724    -1.9609351    -0.8303178
H           0.7703389    -2.4247601    -0.8681477
H           2.4831219    -2.5686459    -1.3709904
H           1.7189873    -0.9441426    -1.2231828
S           2.1839362    -1.9153340     0.9211799
N           3.6689681    -1.0671847     0.8982185
C           4.1863704    -0.7687903     2.2455605
H           4.9489036     0.0077658     2.1460408
H           4.6286123    -1.6483279     2.7322180
H           3.3674863    -0.3846043     2.8571358
O           1.2340646    -1.0594710     1.6375528
O           2.3626996    -3.3077314     1.3662835
C           6.5876364    -2.0396758    -2.0154324
H           7.3399679    -2.2739943    -2.7635188
C           6.0588547    -0.7493963    -1.9365345
H           6.3972021     0.0227786    -2.6220139
C           5.0868421    -0.4500080    -0.9816646
H           4.6587176     0.5455850    -0.9108208
C           4.6480559    -1.4387818    -0.0938002
C           5.1868144    -2.7309364    -0.1641990
H           4.8371937    -3.4932850     0.5250032
C           6.1478634    -3.0279104    -1.1320306
H           6.5580157    -4.0324132    -1.1907536
23
218_C8H11NO2S_0-4-5-18 (-30,) energy =    -914.7857010
C           1.8734557    -2.0315500    -0.8462777
H           0.8415552    -2.3861840    -0.9008611
H           2.5593450    -2.7948378    -1.2102634
H           1.9823720    -1.1000928    -1.4034346
S           2.1502077    -1.7385850     0.9117284
N           3.7116582    -1.0261447     0.9447066
C           4.2332745    -0.9082527     2.3167461
H           5.0761131    -0.2131201     2.2939048
H           4.5618211    -1.8690992     2.7336373
H           3.4513282    -0.4868991     2.9534572
O           1.2060839    -0.7251597     1.3903985
O           2.1789196    -3.0530043     1.5754837
C           6.5333991    -2.0012692    -2.0591122
H           7.2612927    -2.2388851    -2.8299534
C           5.9719342    -0.7242327    -1.9982990
H           6.2623508     0.0343507    -2.7199166
C           5.0348328    -0.4178347    -1.0102258
H           4.5888728     0.5701061    -0.9445269
C           4.6585087    -1.3900362    -0.0778261
C           5.2284774    -2.6698580    -0.1336689
H           4.9264452    -3.4197365     0.5921780
C           6.1599599    -2.9730369    -1.1271588
H           6.5958264    -3.9673482    -1.1723458
23
218_C8H11NO2S_0-4-5-18 (-15,) energy =    -914.7832940
C           1.9256476    -2.0722985    -0.8510565
H           0.8757965    -2.3639487    -0.9304205
H           2.5750821    -2.9193956    -1.0692606
H           2.1354381    -1.2317682    -1.5127057
S           2.1117325    -1.5767438     0.8737322
N           3.7525920    -1.0561306     0.9887237
C           4.2452299    -1.1299973     2.3740905
H           5.1940299    -0.5899247     2.4139087
H           4.3871444    -2.1572653     2.7317943
H           3.5321494    -0.6244880     3.0305554
O           1.2535905    -0.4153060     1.1224519
O           1.9379808    -2.7800807     1.7023872
C           6.5085513    -1.9583764    -2.0982009
H           7.2196936    -2.1775432    -2.8897911
C           5.8350544    -0.7352249    -2.0812526
H           6.0239406     0.0022470    -2.8564925
C           4.9272929    -0.4494733    -1.0606115
H           4.4105690     0.5048022    -1.0190597
C           4.6780515    -1.3934796    -0.0574502
C           5.3565580    -2.6206300    -0.0751878
H           5.1615145    -3.3533156     0.7028815
C           6.2703500    -2.8980400    -1.0922394
H           6.7930826    -3.8506064    -1.1015746
23
218_C8H11NO2S_0-4-5-18 (0,) energy =    -914.7828255
C           1.9328803    -2.0817451    -0.8272157
H           0.8654302    -2.2971372    -0.9150958
H           2.5158965    -2.9994276    -0.9107053
H           2.2358732    -1.3528899    -1.5773314
S           2.1002758    -1.3913453     0.8336286
N           3.7946648    -1.0928057     1.0361692
C           4.2359684    -1.3539260     2.4162632
H           5.2580229    -0.9785600     2.5047228
H           4.2008533    -2.4133691     2.6963332
H           3.6013275    -0.7942679     3.1072024
O           1.4018891    -0.1035941     0.8522329
O           1.7145203    -2.4322776     1.7964283
C           6.4982967    -1.9166321    -2.1171933
H           7.1959408    -2.1142914    -2.9260542
C           5.7023073    -0.7689094    -2.1417919
H           5.7839928    -0.0654743    -2.9659195
C           4.8192959    -0.5050929    -1.0956311
H           4.2241370     0.4034713    -1.0816927
C           4.7020175    -1.4044582    -0.0260187
C           5.5016629    -2.5562641    -0.0042375
H           5.4206865    -3.2555856     0.8224138
C           6.4007628    -2.8027510    -1.0427837
H           7.0196885    -3.6955032    -1.0147338
23
218_C8H11NO2S_0-4-5-18 (15,) energy =    -914.7845041
C           1.9304537    -2.1523897    -0.7685471
H           0.8507471    -2.2676746    -0.8886192
H           2.4101399    -3.1278359    -0.6732547
H           2.3485630    -1.5887873    -1.6003539
S           2.1087005    -1.2245962     0.7749043
N           3.8130160    -1.0948879     1.0631339
C           4.2024426    -1.5032075     2.4226755
H           5.2450330    -1.2062536     2.5593480
H           4.0956176    -2.5785993     2.6102294
H           3.5891688    -0.9686322     3.1490407
O           1.5836197     0.1189701     0.5194678
O           1.5549219    -2.0316802     1.8681447
C           6.4849045    -1.8568139    -2.1320368
H           7.1734418    -2.0386663    -2.9522197
C           5.6356289    -0.7473508    -2.1579604
H           5.6667157    -0.0565045    -2.9961087
C           4.7663778    -0.5016563    -1.0971438
H           4.1310877     0.3793249    -1.0870114
C           4.7124436    -1.3860393    -0.0076932
C           5.5644538    -2.4993881     0.0162695
H           5.5382786    -3.1881582     0.8546006
C           6.4511445    -2.7228613    -1.0386706
H           7.1111568    -3.5855783    -1.0062388
23
218_C8H11NO2S_0-4-5-18 (30,) energy =    -914.7875525
C           1.9144761    -2.1880995    -0.6648734
H           0.8400088    -2.1679217    -0.8603165
H           2.2296271    -3.1920887    -0.3739085
H           2.4682843    -1.8390669    -1.5347433
S           2.1590162    -1.0488107     0.7213952
N           3.8469783    -1.0860143     1.0801810
C           4.1774437    -1.6168206     2.4114289
H           5.2191938    -1.3551181     2.6128842
H           4.0510593    -2.7039975     2.4998334
H           3.5415179    -1.1378944     3.1543300
O           1.8315390     0.2871075     0.2173878
O           1.4728211    -1.5864677     1.8994558
C           6.5306143    -1.7851323    -2.1239492
H           7.2214748    -1.9526791    -2.9451648
C           5.6557381    -0.6958208    -2.1481654
H           5.6678857    -0.0052729    -2.9871048
C           4.7823866    -0.4661568    -1.0874613
H           4.1249975     0.3973782    -1.0848739
C           4.7501917    -1.3501085     0.0049011
C           5.6276138    -2.4439796     0.0277004
H           5.6227913    -3.1339910     0.8647064
C           6.5166478    -2.6488412    -1.0291177
H           7.1952901    -3.4969430    -0.9950106
23
218_C8H11NO2S_0-4-5-18 (45,) energy =    -914.7901375
C           1.8461198    -2.3130166    -0.4942804
H           0.7885674    -2.2220989    -0.7513369
H           2.0391866    -3.2729279    -0.0109590
H           2.4667722    -2.1871090    -1.3815014
S           2.1936869    -0.9746864     0.6738622
N           3.8617617    -1.1171716     1.0500748
C           4.1653375    -1.7236084     2.3541431
H           5.2055498    -1.4860899     2.5903776
H           4.0315892    -2.8143144     2.3761448
H           3.5167207    -1.2804932     3.1071844
O           1.9918683     0.2799385    -0.0529770
O           1.4696815    -1.2399567     1.9186363
C           6.5881648    -1.7146373    -2.1454465
H           7.2912760    -1.8581126    -2.9608123
C           5.7117770    -0.6270319    -2.1516073
H           5.7340492     0.0860656    -2.9712690
C           4.8200047    -0.4247176    -1.1003021
H           4.1595681     0.4343229    -1.0916955
C           4.7739659    -1.3364073    -0.0314880
C           5.6526676    -2.4307428    -0.0280676
H           5.6372004    -3.1438336     0.7889315
C           6.5578158    -2.6082755    -1.0755740
H           7.2358107    -3.4573257    -1.0529529
23
218_C8H11NO2S_0-4-5-18 (60,) energy =    -914.7912096
C           1.7443324    -2.4982717    -0.2632844
H           0.6957847    -2.4140701    -0.5569970
H           1.8775588    -3.3349109     0.4257365
H           2.3787593    -2.6081203    -1.1441997
S           2.1756693    -0.9577611     0.5824207
N           3.8275590    -1.1162231     0.9852958
C           4.1092278    -1.7456106     2.2829966
H           5.1499253    -1.5283854     2.5355894
H           3.9636913    -2.8358845     2.2869829
H           3.4569268    -1.3029756     3.0337694
O           2.0440461     0.1188466    -0.3984922
O           1.4492583    -0.9141654     1.8527166
C           6.6525726    -1.6227630    -2.1396895
H           7.3837989    -1.7428349    -2.9340016
C           5.8554205    -0.4773110    -2.0823715
H           5.9670708     0.3019308    -2.8313598
C           4.9276194    -0.3060623    -1.0569485
H           4.3216578     0.5893105    -1.0001060
C           4.7684993    -1.3035503    -0.0820896
C           5.5664012    -2.4562896    -0.1430353
H           5.4606762    -3.2347069     0.6055818
C           6.5081040    -2.6066236    -1.1619826
H           7.1241160    -3.5014567    -1.1905814
23
218_C8H11NO2S_0-4-5-18 (75,) energy =    -914.7910404
C           1.6293254    -2.5914823    -0.0004207
H           0.5775111    -2.4944731    -0.2784201
H           1.7341359    -3.2901465     0.8321090
H           2.2214937    -2.9101355    -0.8605406
S           2.1950351    -0.9539514     0.5225156
N           3.8352582    -1.1599871     0.9223882
C           4.1097813    -1.7813956     2.2238440
H           5.1469129    -1.5607302     2.4875803
H           3.9707050    -2.8728234     2.2292150
H           3.4497863    -1.3368057     2.9681289
O           2.1175388    -0.0733825    -0.6412708
O           1.5066896    -0.6270729     1.7724676
C           6.7454940    -1.5412154    -2.1371565
H           7.5007302    -1.6303375    -2.9129493
C           5.9873931    -0.3735370    -2.0229908
H           6.1531387     0.4522533    -2.7094014
C           5.0288396    -0.2432304    -1.0202454
H           4.4501422     0.6661439    -0.9197656
C           4.8008359    -1.3021635    -0.1292933
C           5.5578747    -2.4769265    -0.2479654
H           5.3943419    -3.3021134     0.4383499
C           6.5312747    -2.5887767    -1.2417573
H           7.1162821    -3.5015339    -1.3167140
23
218_C8H11NO2S_0-4-5-18 (90,) energy =    -914.7898467
C           1.4646559    -2.6052485     0.1641140
H           0.4112192    -2.4578194    -0.0845165
H           1.5539963    -3.1905677     1.0813179
H           1.9857272    -3.0882776    -0.6651115
S           2.1848633    -0.9666818     0.4299481
N           3.8054953    -1.2660735     0.8219746
C           4.0704285    -1.8446093     2.1431560
H           5.0936163    -1.5878421     2.4283017
H           3.9634848    -2.9390408     2.1688143
H           3.3827226    -1.4011590     2.8641697
O           2.1502515    -0.2526354    -0.8445267
O           1.5559954    -0.4156918     1.6321942
C           6.8551322    -1.4578165    -2.1127852
H           7.6478685    -1.5024129    -2.8542730
C           6.0682881    -0.3104169    -1.9895920
H           6.2494283     0.5445614    -2.6351541
C           5.0609478    -0.2372225    -1.0295332
H           4.4613355     0.6577875    -0.9234976
C           4.8123581    -1.3355057    -0.1942009
C           5.5972071    -2.4904279    -0.3228306
H           5.4130894    -3.3459220     0.3202536
C           6.6197340    -2.5443379    -1.2705988
H           7.2254676    -3.4427603    -1.3535190
23
218_C8H11NO2S_0-4-5-18 (105,) energy =    -914.7887784
C           1.3812524    -2.7566429     0.8140843
H           0.4075279    -3.0866268     0.4443468
H           1.2723449    -2.2397658     1.7688296
H           2.0630661    -3.6041152     0.9028188
S           2.0507667    -1.6020754    -0.3995938
N           3.5426240    -1.1696235     0.3122678
C           3.6604985     0.2171457     0.7986433
H           4.4841017     0.2460107     1.5173168
H           2.7382994     0.5136817     1.2988639
H           3.8661068     0.9310484    -0.0089714
O           2.3006399    -2.3535178    -1.6313595
O           1.1940710    -0.4109479    -0.3956471
C           7.1415571    -2.7965510    -1.2194673
H           8.0724781    -3.2085966    -1.5992351
C           6.3869566    -1.9294366    -2.0133936
H           6.7269501    -1.6697078    -3.0120698
C           5.1925107    -1.3955401    -1.5317823
H           4.5969178    -0.7315603    -2.1496648
C           4.7448143    -1.7363195    -0.2499238
C           5.4989048    -2.6068999     0.5426193
H           5.1390955    -2.8578908     1.5363324
C           6.6973740    -3.1344549     0.0596706
H           7.2800980    -3.8092631     0.6807443
23
218_C8H11NO2S_0-4-5-18 (120,) energy =    -914.7884145
C           1.2488981    -2.5754239     0.9187535
H           0.2700151    -2.8811980     0.5418274
H           1.1324233    -1.8909508     1.7610061
H           1.8409962    -3.4467121     1.2018414
S           2.0939284    -1.7225056    -0.4281171
N           3.5640376    -1.2671219     0.3172205
C           3.6213375     0.1148079     0.8231221
H           4.4650532     0.1796492     1.5153105
H           2.7037058     0.3517768     1.3656027
H           3.7517723     0.8550534     0.0242030
O           2.3954853    -2.7120520    -1.4629523
O           1.3233989    -0.5108685    -0.7329026
C           7.2103607    -2.7252659    -1.2700164
H           8.1530000    -3.0952120    -1.6639967
C           6.4503974    -1.8183433    -2.0124440
H           6.7977107    -1.4848298    -2.9863657
C           5.2409576    -1.3406090    -1.5097481
H           4.6428230    -0.6413804    -2.0865438
C           4.7846444    -1.7760583    -0.2604340
C           5.5434416    -2.6857687     0.4805416
H           5.1758780    -3.0124424     1.4489041
C           6.7560916    -3.1580227    -0.0232036
H           7.3430541    -3.8648531     0.5568316
23
218_C8H11NO2S_0-4-5-18 (135,) energy =    -914.7885054
C           1.1386189    -2.3891963     0.9704831
H           0.1686108    -2.6831173     0.5626884
H           1.0124179    -1.5670554     1.6772808
H           1.6333418    -3.2388986     1.4418353
S           2.1455960    -1.8446998    -0.4241873
N           3.5888990    -1.3702940     0.3724265
C           3.5956282     0.0241478     0.8475603
H           4.4474509     0.1392924     1.5227021
H           2.6801565     0.2310934     1.4081378
H           3.6745968     0.7541492     0.0331094
O           2.4599205    -3.0178356    -1.2395115
O           1.4914486    -0.6676830    -1.0119104
C           7.2548544    -2.6584487    -1.3175289
H           8.2016455    -2.9863212    -1.7379215
C           6.4762402    -1.7198055    -1.9984961
H           6.8125790    -1.3196742    -2.9509628
C           5.2613876    -1.2961186    -1.4611943
H           4.6480652    -0.5721881    -1.9904443
C           4.8203359    -1.8177034    -0.2399139
C           5.5961643    -2.7595831     0.4389124
H           5.2357863    -3.1543194     1.3839725
C           6.8138375    -3.1777697    -0.0991324
H           7.4151943    -3.9106872     0.4316836
23
218_C8H11NO2S_0-4-5-18 (150,) energy =    -914.7883334
C           0.9928663    -2.2027732     0.9617559
H           0.0512394    -2.5157535     0.5048491
H           0.8477450    -1.2648451     1.4994168
H           1.3789714    -2.9808886     1.6208429
S           2.1550667    -1.9692944    -0.3991617
N           3.5707581    -1.4810030     0.4485997
C           3.5445727    -0.0735029     0.8911039
H           4.4233230     0.0878488     1.5201076
H           2.6533108     0.1113083     1.4970802
H           3.5551515     0.6397952     0.0584668
O           2.4405132    -3.2774472    -0.9875333
O           1.6476676    -0.8670259    -1.2304668
C           7.2307686    -2.5987006    -1.3782975
H           8.1755172    -2.8845320    -1.8326223
C           6.4092770    -1.6602199    -2.0066982
H           6.7097996    -1.2186743    -2.9528401
C           5.1968235    -1.2893860    -1.4257482
H           4.5480406    -0.5695386    -1.9164490
C           4.8038485    -1.8652048    -0.2123320
C           5.6197561    -2.8097381     0.4127623
H           5.2912344    -3.2495997     1.3491713
C           6.8345444    -3.1733408    -0.1692133
H           7.4682808    -3.9082556     0.3194556
23
218_C8H11NO2S_0-4-5-18 (165,) energy =    -914.7869863
C           0.9449601    -1.9900132     0.9145826
H           0.0492188    -2.4067851     0.4483325
H           0.7623818    -0.9533688     1.1973386
H           1.2438162    -2.5948424     1.7717760
S           2.2275920    -2.0817101    -0.3532195
N           3.6239742    -1.5738098     0.5241368
C           3.5684956    -0.1657207     0.9699712
H           4.4915719     0.0355339     1.5181433
H           2.7311137    -0.0233710     1.6581270
H           3.4765204     0.5481150     0.1419773
O           2.4424688    -3.4855436    -0.7019508
O           1.8738214    -1.1024583    -1.3937776
C           7.2716812    -2.5227490    -1.4273191
H           8.2135841    -2.7667476    -1.9110664
C           6.4209272    -1.5718666    -1.9944860
H           6.6957871    -1.0789590    -2.9229470
C           5.2109733    -1.2535448    -1.3771009
H           4.5394180    -0.5280002    -1.8249099
C           4.8536794    -1.8937221    -0.1846565
C           5.6976867    -2.8530349     0.3782348
H           5.3926615    -3.3450015     1.2962166
C           6.9079588    -3.1641596    -0.2416529
H           7.5635196    -3.9103173     0.1987654
23
218_C8H11NO2S_0-4-5-18 (180,) energy =    -914.7845264
C           0.8885002    -1.3324100     0.5132955
H           0.0149010    -1.8577340     0.1203387
H           0.8522216    -0.2803933     0.2246093
H           0.9397952    -1.4558972     1.5945972
S           2.3015807    -2.1346586    -0.2766797
N           3.6099313    -1.0706522     0.1446835
C           3.6729475    -0.7615758     1.5873103
H           4.5985838    -0.2083514     1.7587150
H           3.6647334    -1.6492983     2.2339233
H           2.8388715    -0.1109776     1.8611623
O           2.4675233    -3.4430778     0.3731371
O           2.1418113    -2.0515573    -1.7285425
C           7.2477436    -2.4193467    -1.5793574
H           8.1802872    -2.7486250    -2.0293409
C           6.3824406    -1.5849454    -2.2899018
H           6.6376598    -1.2625625    -3.2955432
C           5.1905870    -1.1537655    -1.7098166
H           4.5092083    -0.5019385    -2.2450177
C           4.8550662    -1.5635659    -0.4148725
C           5.7111004    -2.4165153     0.2915581
H           5.4440195    -2.7625609     1.2842687
C           6.9095404    -2.8318717    -0.2896355
H           7.5731121    -3.4900775     0.2645016
