30
121_C16H12N2_4-6-25-26 (-165,) energy =    -726.4249077
C           5.3738622     1.5833601     1.6398284
H           6.0748274     2.3812391     1.8681113
C           5.5433157     0.3072342     2.1721908
H           6.3794227     0.0902078     2.8316031
C           4.6482851    -0.7057051     1.8419434
H           4.8564699    -1.7042569     2.2089422
C           3.5585835    -0.5053857     0.9719883
C           3.3360567     0.8261744     0.5293993
C           4.2720629     1.8281128     0.8270327
H           4.0949135     2.8254334     0.4362763
C          -0.1357557     2.3675904    -1.2199299
H          -1.0347725     2.7858019    -1.6603614
C          -0.1654776     1.6422786    -0.0288618
H          -1.0996225     1.4750733     0.5059947
N           0.9312879     1.1207968     0.5231923
C           2.0893885     1.3237436    -0.1308385
N           2.2329912     2.0197251    -1.2718598
C           1.1168890     2.5317694    -1.8037156
H           1.2388393     3.0915610    -2.7301650
C           0.8979857    -3.8289318     0.1538096
H           0.2233581    -4.6587216    -0.0387930
C           1.7704619    -3.8622636     1.2412981
H           1.7730311    -4.7157905     1.9142849
C           2.6319043    -2.7954663     1.4878344
H           3.2550247    -2.8376318     2.3739778
C           2.6710188    -1.6644319     0.6478840
C           1.7632629    -1.6444505    -0.4274151
H           1.7754229    -0.8201465    -1.1295037
C           0.9031720    -2.7110283    -0.6798383
H           0.2352946    -2.6647257    -1.5361476
30
121_C16H12N2_4-6-25-26 (-150,) energy =    -726.4300511
C           5.4378594     1.5613607     1.5695237
H           6.1615372     2.3451061     1.7750828
C           5.6165257     0.2755784     2.0775156
H           6.4835930     0.0396351     2.6887412
C           4.6902581    -0.7202309     1.7804489
H           4.8833579    -1.7322202     2.1221281
C           3.5603231    -0.4803173     0.9772946
C           3.3425757     0.8519982     0.5416504
C           4.3062305     1.8364392     0.8080436
H           4.1314032     2.8392544     0.4313766
C          -0.1788468     2.3334808    -1.1589652
H          -1.0913815     2.7320256    -1.5896754
C          -0.1917103     1.5022268    -0.0393121
H          -1.1265477     1.2282338     0.4481810
N           0.9220697     1.0039568     0.4998500
C           2.0816875     1.3376610    -0.0946626
N           2.2077749     2.1427640    -1.1651555
C           1.0757461     2.6296387    -1.6844037
H           1.1848896     3.2785249    -2.5525572
C           0.9066272    -3.7824423     0.1346024
H           0.2388585    -4.6142390    -0.0731162
C           1.6118442    -3.7264521     1.3368518
H           1.4876092    -4.5097532     2.0801255
C           2.4679992    -2.6585383     1.6009656
H           2.9725439    -2.6134717     2.5611206
C           2.6537331    -1.6221893     0.6683595
C           1.9181633    -1.6865848    -0.5282060
H           2.0545945    -0.9196725    -1.2836355
C           1.0661966    -2.7552381    -0.7970385
H           0.5274254    -2.7858985    -1.7406210
30
121_C16H12N2_4-6-25-26 (-135,) energy =    -726.4329371
C           5.4453036     1.5721861     1.4507756
H           6.1891561     2.3445784     1.6253064
C           5.6369907     0.2792970     1.9370206
H           6.5350746     0.0280482     2.4951205
C           4.6818566    -0.7024078     1.6842111
H           4.8641473    -1.7216114     2.0124144
C           3.5102098    -0.4304564     0.9577013
C           3.2934219     0.9002376     0.5219390
C           4.2817569     1.8705756     0.7479403
H           4.1057909     2.8764291     0.3808008
C          -0.2692068     2.3237804    -1.1417278
H          -1.1925376     2.7037202    -1.5661440
C          -0.2604117     1.4106859    -0.0881274
H          -1.1890124     1.0501952     0.3527436
N           0.8672055     0.9348831     0.4425149
C           2.0200445     1.3734170    -0.0938750
N           2.1234281     2.2636322    -1.0985276
C           0.9788211     2.7270797    -1.6091688
H           1.0709589     3.4456267    -2.4227653
C           0.9039884    -3.7574150     0.1157727
H           0.2560136    -4.6034381    -0.0974607
C           1.4477244    -3.5903789     1.3898142
H           1.2180262    -4.3018727     2.1788346
C           2.2817287    -2.5058009     1.6604497
H           2.6793867    -2.3710399     2.6624695
C           2.5893968    -1.5640811     0.6655790
C           2.0292034    -1.7422192    -0.6102607
H           2.2710126    -1.0392451    -1.4022884
C           1.2004932    -2.8280959    -0.8837292
H           0.7894283    -2.9519803    -1.8824026
30
121_C16H12N2_4-6-25-26 (-120,) energy =    -726.4336545
C           5.4782229     1.5508003     1.3885823
H           6.2368190     2.3126842     1.5453587
C           5.6820183     0.2454500     1.8358038
H           6.6046155    -0.0253726     2.3424377
C           4.7047890    -0.7218988     1.6102437
H           4.8821488    -1.7494169     1.9154576
C           3.4996909    -0.4172884     0.9577292
C           3.2821326     0.9180989     0.5408243
C           4.2886184     1.8756630     0.7438866
H           4.1097169     2.8883631     0.3984713
C          -0.3086972     2.3175959    -1.0828736
H          -1.2390393     2.6879502    -1.5003383
C          -0.2800165     1.3228602    -0.1068903
H          -1.1998614     0.8848190     0.2786060
N           0.8568470     0.8583526     0.4141504
C           1.9999537     1.3904728    -0.0534354
N           2.0820815     2.3643015    -0.9804559
C           0.9294800     2.8153326    -1.4816785
H           1.0055800     3.6023590    -2.2310984
C           0.9231442    -3.7623175     0.1175060
H           0.2890181    -4.6187640    -0.0960198
C           1.2956572    -3.4730946     1.4309604
H           0.9480878    -4.1013203     2.2471625
C           2.1135356    -2.3762278     1.7032122
H           2.3922283    -2.1482137     2.7285604
C           2.5642832    -1.5426718     0.6695180
C           2.1893803    -1.8481886    -0.6481229
H           2.5506611    -1.2256980    -1.4624805
C           1.3757112    -2.9461786    -0.9216245
H           1.1009653    -3.1696962    -1.9494049
30
121_C16H12N2_4-6-25-26 (-105,) energy =    -726.4330384
C           5.5024535     1.5575520     1.3357273
H           6.2666828     2.3152301     1.4857952
C           5.7276649     0.2371341     1.7249449
H           6.6729291    -0.0498020     2.1781322
C           4.7394551    -0.7223834     1.5124251
H           4.9248146    -1.7586482     1.7813328
C           3.5036185    -0.3939933     0.9347773
C           3.2726905     0.9505663     0.5587445
C           4.2873368     1.9026038     0.7531699
H           4.0968562     2.9242979     0.4431205
C          -0.3452197     2.3413485    -1.0140704
H          -1.2816337     2.7064240    -1.4224764
C          -0.2939276     1.2743612    -0.1194020
H          -1.2016835     0.7703189     0.2099978
N           0.8513884     0.8160181     0.3889247
C           1.9807664     1.4268039    -0.0090553
N           2.0391211     2.4744182    -0.8548527
C           0.8794046     2.9180258    -1.3438930
H           0.9371829     3.7651751    -2.0264604
C           0.9385321    -3.7573768     0.1304762
H           0.3110424    -4.6215994    -0.0712112
C           1.1363192    -3.3240507     1.4428237
H           0.6610467    -3.8486209     2.2679056
C           1.9449059    -2.2174721     1.7019590
H           2.0934085    -1.8790869     2.7238365
C           2.5577974    -1.5179432     0.6534149
C           2.3661439    -1.9711617    -0.6596873
H           2.8568631    -1.4523745    -1.4792278
C           1.5582557    -3.0781440    -0.9199746
H           1.4207875    -3.4156281    -1.9442174
30
121_C16H12N2_4-6-25-26 (-90,) energy =    -726.4320327
C           5.5150997     1.5472797     1.2957958
H           6.2786657     2.3049532     1.4494165
C           5.7652278     0.2127098     1.6140912
H           6.7298964    -0.0864175     2.0156040
C           4.7740331    -0.7435745     1.4004867
H           4.9748824    -1.7873455     1.6254653
C           3.5113937    -0.4016581     0.8927894
C           3.2605913     0.9552939     0.5771241
C           4.2765740     1.9060447     0.7757878
H           4.0701858     2.9371524     0.5109413
C          -0.3755509     2.3721883    -0.9351368
H          -1.3144605     2.7433701    -1.3320958
C          -0.3106537     1.2477021    -0.1157952
H          -1.2098946     0.7003541     0.1641984
N           0.8387153     0.7824129     0.3773962
C           1.9596537     1.4420445     0.0399052
N           2.0025369     2.5470351    -0.7313550
C           0.8399792     2.9977189    -1.2054005
H           0.8871187     3.8913946    -1.8267366
C           0.9528586    -3.7871188     0.1422831
H           0.3297555    -4.6584117    -0.0421006
C           0.9696218    -3.1900972     1.4052052
H           0.3584547    -3.5954272     2.2077489
C           1.7696401    -2.0737757     1.6432452
H           1.7748554    -1.6061211     2.6237709
C           2.5616941    -1.5306273     0.6222856
C           2.5509441    -2.1465659    -0.6362459
H           3.1756776    -1.7462072    -1.4306766
C           1.7456560    -3.2616784    -0.8779286
H           1.7473068    -3.7240819    -1.8618285
30
121_C16H12N2_4-6-25-26 (-75,) energy =    -726.4327406
C           5.3093318     1.5676810     1.7384048
H           5.9725053     2.3415681     2.1151534
C           5.7211349     0.2353627     1.7095173
H           6.7080684    -0.0447202     2.0683588
C           4.8512510    -0.7439410     1.2333555
H           5.1553258    -1.7870773     1.2397757
C           3.5712523    -0.4257902     0.7549131
C           3.1633463     0.9292327     0.7725467
C           4.0396910     1.9032901     1.2799073
H           3.7025683     2.9339055     1.3007973
C          -0.5129293     2.2836739    -0.6943017
H          -1.4657467     2.6392057    -1.0720042
C           0.1484434     2.9178274     0.3552797
H          -0.2711188     3.8024339     0.8331716
N           1.3166203     2.4866333     0.8349229
C           1.8468041     1.3929498     0.2523451
N           1.3009965     0.7252302    -0.7785335
C           0.1297305     1.1721923    -1.2354370
H          -0.3024048     0.6212401    -2.0698904
C           1.0712939    -3.7693519    -0.3062834
H           0.4497637    -4.6224562    -0.5657314
C           0.8507243    -3.0754115     0.8844113
H           0.0575517    -3.3881182     1.5588931
C           1.6508325    -1.9817339     1.2175870
H           1.4805114    -1.4473256     2.1487209
C           2.6828169    -1.5655260     0.3653299
C           2.8964850    -2.2688774    -0.8277390
H           3.6874672    -1.9467946    -1.4994209
C           2.0978360    -3.3624180    -1.1610641
H           2.2751724    -3.8953398    -2.0918529
30
121_C16H12N2_4-6-25-26 (-60,) energy =    -726.4335749
C           5.3264927     1.5638415     1.6938332
H           5.9920585     2.3368286     2.0680925
C           5.7599818     0.2414968     1.5984918
H           6.7672386    -0.0312661     1.9022099
C           4.8866166    -0.7387194     1.1312037
H           5.2068217    -1.7764458     1.0973987
C           3.5776313    -0.4308879     0.7288719
C           3.1539968     0.9180446     0.7966491
C           4.0328469     1.8909837     1.2995092
H           3.6821070     2.9156442     1.3609842
C          -0.5373060     2.2891261    -0.6120023
H          -1.4919722     2.6512327    -0.9786884
C           0.0946539     2.8594481     0.4904941
H          -0.3513878     3.6978503     1.0243292
N           1.2661522     2.4196488     0.9560077
C           1.8270909     1.3829251     0.3037840
N           1.3108215     0.7777909    -0.7803857
C           0.1369332     1.2326947    -1.2218466
H          -0.2719493     0.7349768    -2.1003068
C           1.0771055    -3.7819928    -0.2978645
H           0.4555097    -4.6381550    -0.5465749
C           0.7280875    -2.9446517     0.7638999
H          -0.1643243    -3.1501788     1.3497030
C           1.5257179    -1.8468380     1.0830605
H           1.2557157    -1.2051259     1.9177302
C           2.6867069    -1.5656762     0.3469086
C           3.0313452    -2.4173023    -0.7120636
H           3.9241237    -2.2054091    -1.2943243
C           2.2320526    -3.5143018    -1.0343407
H           2.5113156    -4.1587663    -1.8640215
30
121_C16H12N2_4-6-25-26 (-45,) energy =    -726.4333275
C           5.3319722     1.5666296     1.6491053
H           6.0002978     2.3388306     2.0198623
C           5.7804826     0.2552948     1.4931189
H           6.8041103    -0.0101688     1.7438859
C           4.9032560    -0.7253582     1.0355569
H           5.2388672    -1.7562869     0.9697280
C           3.5691183    -0.4323758     0.7078292
C           3.1365777     0.9122034     0.8158006
C           4.0188585     1.8832889     1.3142477
H           3.6577760     2.9017320     1.4123210
C          -0.5574357     2.3319023    -0.5348547
H          -1.5108893     2.7094135    -0.8889743
C           0.0398597     2.8110989     0.6282776
H          -0.4331474     3.5895256     1.2258529
N           1.2107641     2.3517547     1.0783313
C           1.8034500     1.3880872     0.3479577
N           1.3217371     0.8727219    -0.7971655
C           0.1490823     1.3459301    -1.2220325
H          -0.2326552     0.9223958    -2.1502106
C           1.0918295    -3.8138240    -0.2804548
H           0.4777812    -4.6799256    -0.5126611
C           0.6411137    -2.8548792     0.6295705
H          -0.3226086    -2.9768404     1.1175062
C           1.4283277    -1.7447857     0.9275164
H           1.0794486    -1.0181305     1.6559919
C           2.6809418    -1.5632916     0.3179698
C           3.1292311    -2.5446698    -0.5796427
H           4.0932750    -2.4203966    -1.0653383
C           2.3399874    -3.6539754    -0.8831531
H           2.7022080    -4.3934154    -1.5927947
30
121_C16H12N2_4-6-25-26 (-30,) energy =    -726.4310571
C           5.3622994     1.5689496     1.6274077
H           6.0301288     2.3423567     1.9963396
C           5.8260809     0.2721077     1.4111362
H           6.8641309     0.0180762     1.6087075
C           4.9489942    -0.7114813     0.9611682
H           5.3075885    -1.7314602     0.8662582
C           3.5917567    -0.4441390     0.7096939
C           3.1513692     0.8967068     0.8505758
C           4.0326596     1.8688651     1.3473388
H           3.6591679     2.8791700     1.4794187
C          -0.5310262     2.3790183    -0.4647582
H          -1.4792141     2.7757756    -0.8119446
C           0.0242882     2.7558952     0.7550951
H          -0.4782713     3.4693173     1.4071468
N           1.1895314     2.2722561     1.1964847
C           1.8166968     1.3878741     0.3988530
N           1.3764208     0.9725778    -0.8025713
C           0.2099834     1.4690279    -1.2177943
H          -0.1386386     1.1280073    -2.1918580
C           1.1135181    -3.8436938    -0.2450722
H           0.4991553    -4.7140432    -0.4595480
C           0.6005187    -2.7851159     0.5071106
H          -0.4133935    -2.8332917     0.8960937
C           1.3890113    -1.6705664     0.7821855
H           0.9867771    -0.8795543     1.4073429
C           2.7061601    -1.5698107     0.2979235
C           3.2165694    -2.6618590    -0.4249857
H           4.2291073    -2.6190306    -0.8153642
C           2.4277980    -3.7763588    -0.7072955
H           2.8450248    -4.5941887    -1.2891247
30
121_C16H12N2_4-6-25-26 (-15,) energy =    -726.4264601
C           5.3844154     1.5639409     1.5810104
H           6.0483132     2.3417629     1.9475553
C           5.8672152     0.2883824     1.2957805
H           6.9198559     0.0539908     1.4301472
C           4.9940738    -0.7022029     0.8546571
H           5.3858959    -1.7036658     0.7176902
C           3.6150085    -0.4746302     0.6903198
C           3.1610475     0.8598965     0.8673241
C           4.0380927     1.8370067     1.3612897
H           3.6477916     2.8354532     1.5311683
C          -0.5089663     2.4114378    -0.4016293
H          -1.4515213     2.8300049    -0.7384111
C           0.0028897     2.6728743     0.8661656
H          -0.5295577     3.3128623     1.5686925
N           1.1618793     2.1618729     1.2951952
C           1.8241353     1.3672263     0.4352783
N           1.4271444     1.0653949    -0.8145071
C           0.2674138     1.5877050    -1.2163629
H          -0.0468997     1.3398088    -2.2294822
C           1.1175284    -3.8898415    -0.2150153
H           0.4969378    -4.7603092    -0.4098318
C           0.5725769    -2.7475749     0.3722797
H          -0.4758001    -2.7278484     0.6588335
C           1.3705661    -1.6340339     0.6229242
H           0.9300525    -0.7910026     1.1421778
C           2.7332262    -1.6031410     0.2653900
C           3.2711519    -2.7887379    -0.2709420
H           4.3170749    -2.8276243    -0.5568457
C           2.4759859    -3.9036110    -0.5293326
H           2.9259654    -4.7878075    -0.9732570
30
121_C16H12N2_4-6-25-26 (0,) energy =    -726.4205033
C           5.3620909     1.5948004     1.5073570
H           6.0185449     2.3810775     1.8689902
C           5.8627357     0.3406433     1.1682576
H           6.9258925     0.1296928     1.2469845
C           4.9967100    -0.6604675     0.7391085
H           5.4256331    -1.6354488     0.5459466
C           3.6026678    -0.4779973     0.6402564
C           3.1321915     0.8483233     0.8507017
C           4.0032755     1.8352362     1.3362679
H           3.5952854     2.8208579     1.5381818
C          -0.5373148     2.4832893    -0.3124699
H          -1.4767256     2.9286445    -0.6226905
C          -0.0724857     2.5791225     0.9958762
H          -0.6405079     3.1093891     1.7592046
N           1.0836854     2.0344981     1.3925236
C           1.7876335     1.3736084     0.4574881
N           1.4377157     1.2351038    -0.8349656
C           0.2814667     1.7893933    -1.2034017
H           0.0045871     1.6749609    -2.2507126
C           1.1140042    -3.9417930    -0.2052062
H           0.4958675    -4.8159971    -0.3904607
C           0.5366003    -2.7195103     0.1333403
H          -0.5422073    -2.6339119     0.2351379
C           1.3319075    -1.6006667     0.3723039
H           0.8362317    -0.6993166     0.7020122
C           2.7356728    -1.6370135     0.2450820
C           3.2929081    -2.9042806    -0.0286006
H           4.3662748    -3.0274238    -0.1090721
C           2.5038186    -4.0253838    -0.2737134
H           2.9847898    -4.9713359    -0.5086320
30
121_C16H12N2_4-6-25-26 (15,) energy =    -726.4264574
C           5.5660376     1.6379617     0.8513063
H           6.2946935     2.4400514     0.9276556
C           5.9275117     0.3178435     1.1127605
H           6.9452850     0.0725918     1.4043175
C           4.9866110    -0.6999445     0.9807152
H           5.3165676    -1.7240922     1.1133281
C           3.6615679    -0.4531843     0.5765361
C           3.2778970     0.9072318     0.4331780
C           4.2452362     1.9197694     0.5173990
H           3.9281599     2.9451077     0.3554017
C          -0.6387822     2.3632654     0.2534208
H          -1.6498000     2.7554316     0.2202678
C          -0.2527007     1.3898575     1.1744724
H          -0.9589707     0.9914408     1.9018589
N           0.9863122     0.8983037     1.2253322
C           1.8664203     1.3852342     0.3314378
N           1.6035570     2.3329751    -0.5863834
C           0.3541201     2.8088648    -0.6144235
H           0.1477593     3.5737274    -1.3620951
C           1.1431068    -3.8800642    -0.2176702
H           0.5305020    -4.7481850    -0.4453845
C           0.8577699    -2.6410586    -0.7922200
H           0.0301562    -2.5398099    -1.4896706
C           1.6454344    -1.5301467    -0.5006382
H           1.4365628    -0.6007605    -1.0174086
C           2.7251002    -1.6038011     0.4016641
C           3.0273877    -2.8771027     0.9209816
H           3.8538538    -2.9960112     1.6137925
C           2.2389854    -3.9907405     0.6373907
H           2.4897842    -4.9492481     1.0843091
30
121_C16H12N2_4-6-25-26 (30,) energy =    -726.4310571
C           5.5768431     1.6332244     0.8199103
H           6.3103169     2.4306216     0.9001294
C           5.9495828     0.3025014     1.0040805
H           6.9808152     0.0455965     1.2313990
C           5.0000083    -0.7076286     0.8731371
H           5.3196754    -1.7420802     0.9484782
C           3.6569247    -0.4345617     0.5595181
C           3.2716353     0.9267520     0.4594266
C           4.2453258     1.9329700     0.5487125
H           3.9283673     2.9643157     0.4324147
C          -0.6702674     2.3130349     0.2925023
H          -1.6894613     2.6834180     0.2595475
C          -0.2897807     1.2688627     1.1346173
H          -1.0086952     0.7901718     1.7984254
N           0.9592250     0.8030632     1.1844139
C           1.8553643     1.3879334     0.3691931
N           1.5977375     2.4098154    -0.4681017
C           0.3390708     2.8587236    -0.4960900
H           0.1378798     3.6843212    -1.1777113
C           1.1309148    -3.8505412    -0.1900680
H           0.5152380    -4.7210953    -0.3999004
C           0.9510722    -2.6679845    -0.9102957
H           0.2028306    -2.6170938    -1.6971801
C           1.7412949    -1.5531960    -0.6411719
H           1.6166848    -0.6588763    -1.2436425
C           2.7209474    -1.5784055     0.3683776
C           2.9120509    -2.7892542     1.0561165
H           3.6586556    -2.8454051     1.8428103
C           2.1185234    -3.9051686     0.7933764
H           2.2760799    -4.8196103     1.3594355
30
121_C16H12N2_4-6-25-26 (45,) energy =    -726.4333277
C           5.5820517     1.6493030     0.7526301
H           6.3175435     2.4455073     0.8269358
C           5.9673551     0.3144881     0.8748528
H           7.0092991     0.0551761     1.0430493
C           5.0134217    -0.6938130     0.7565836
H           5.3249410    -1.7336415     0.7952487
C           3.6568875    -0.4083066     0.5299896
C           3.2647406     0.9511910     0.4626219
C           4.2406851     1.9564956     0.5451322
H           3.9201197     2.9899921     0.4654134
C          -0.7014476     2.2702918     0.3270590
H          -1.7277955     2.6207468     0.2987715
C          -0.3181121     1.1632663     1.0827037
H          -1.0421529     0.6119883     1.6814241
N           0.9400357     0.7218403     1.1257356
C           1.8432571     1.3947228     0.3906109
N           1.5821026     2.4823953    -0.3591627
C           0.3153086     2.9059185    -0.3810192
H           0.1125398     3.7856006    -0.9907744
C           1.1114054    -3.8102859    -0.1720735
H           0.4865845    -4.6789494    -0.3621464
C           1.0568756    -2.7042044    -1.0232627
H           0.3956482    -2.7124584    -1.8860625
C           1.8578885    -1.5906600    -0.7800341
H           1.8265611    -0.7460931    -1.4628217
C           2.7266811    -1.5536366     0.3232295
C           2.7853137    -2.6798402     1.1587107
H           3.4479494    -2.6690569     2.0198431
C           1.9800568    -3.7934159     0.9196833
H           2.0321674    -4.6482123     1.5891507
30
121_C16H12N2_4-6-25-26 (60,) energy =    -726.4335750
C           5.5953550     1.6542714     0.7099566
H           6.3294929     2.4521540     0.7805271
C           5.9933029     0.3187116     0.7690887
H           7.0431904     0.0612374     0.8815837
C           5.0388785    -0.6909031     0.6607416
H           5.3505798    -1.7317623     0.6622949
C           3.6729264    -0.4035164     0.5139563
C           3.2713315     0.9535834     0.4877553
C           4.2459695     1.9614701     0.5655492
H           3.9189555     2.9949665     0.5243882
C          -0.7144864     2.2168779     0.3967675
H          -1.7465770     2.5505861     0.3765786
C          -0.3255199     1.0548157     1.0607524
H          -1.0503136     0.4404244     1.5934769
N           0.9398880     0.6333974     1.0925601
C           1.8452858     1.3822201     0.4385674
N           1.5776619     2.5274630    -0.2183783
C           0.3046913     2.9299945    -0.2299911
H           0.0977769     3.8568855    -0.7637518
C           1.0902910    -3.7819787    -0.1584022
H           0.4518065    -4.6435777    -0.3351332
C           1.1953201    -2.7758088    -1.1211338
H           0.6428768    -2.8540500    -2.0541345
C           2.0146476    -1.6709500    -0.8946448
H           2.1018689    -0.8963715    -1.6521429
C           2.7437940    -1.5513890     0.2982033
C           2.6365643    -2.5711494     1.2542871
H           3.1907041    -2.4861217     2.1852470
C           1.8144153    -3.6756262     1.0300152
H           1.7379300    -4.4524573     1.7865734
30
121_C16H12N2_4-6-25-26 (75,) energy =    -726.4327404
C           5.5975535     1.6667237     0.6617257
H           6.3302513     2.4663519     0.7280505
C           6.0045028     0.3326618     0.6528750
H           7.0596374     0.0776761     0.7069365
C           5.0495416    -0.6777843     0.5551894
H           5.3639421    -1.7170851     0.5144771
C           3.6771073    -0.3936604     0.4894822
C           3.2679806     0.9609498     0.5141010
C           4.2423371     1.9707483     0.5856999
H           3.9100439     3.0031333     0.5862676
C          -0.7281061     2.2000066     0.4807909
H          -1.7626595     2.5264482     0.4704178
C          -0.3371506     0.9946924     1.0600413
H          -1.0632591     0.3357563     1.5345278
N           0.9318485     0.5826855     1.0777514
C           1.8398169     1.3838846     0.4944865
N           1.5692053     2.5741255    -0.0770436
C           0.2937949     2.9664610    -0.0754012
H           0.0859195     3.9298750    -0.5396382
C           1.0816567    -3.7715082    -0.1514730
H           0.4389281    -4.6320493    -0.3181045
C           1.3624993    -2.8911783    -1.1974595
H           0.9414813    -3.0649967    -2.1845683
C           2.1896436    -1.7879901    -0.9827884
H           2.4112637    -1.1082028    -1.8015342
C           2.7479340    -1.5482180     0.2803470
C           2.4601974    -2.4381118     1.3238723
H           2.8803690    -2.2542004     2.3088307
C           1.6343433    -3.5413425     1.1101052
H           1.4189543    -4.2203128     1.9313394
30
121_C16H12N2_4-6-25-26 (90,) energy =    -726.4320402
C           4.9227896     1.6730697     2.3860360
H           5.5203443     2.4695451     2.8210371
C           5.1273260     0.3465574     2.7650532
H           5.8840924     0.0937127     3.5030618
C           4.3433966    -0.6585302     2.2013169
H           4.4821299    -1.6901537     2.5126682
C           3.3622919    -0.3793032     1.2379948
C           3.1627342     0.9674353     0.8514868
C           3.9436313     1.9740287     1.4453734
H           3.7635955     3.0016416     1.1496108
C           0.3595441     2.1917999    -2.0033633
H          -0.3690434     2.5137310    -2.7398639
C           0.7631282     3.0152383    -0.9540465
H           0.3595571     4.0208044    -0.8404647
N           1.6512342     2.6290491    -0.0367409
C           2.1595404     1.3871045    -0.1662322
N           1.8539974     0.5279682    -1.1531283
C           0.9572302     0.9346130    -2.0537407
H           0.7175136     0.2268125    -2.8463244
C           1.0351945    -3.8099510     0.0635477
H           0.4594391    -4.6896010    -0.2124001
C           2.2322130    -3.5180610    -0.5950952
H           2.5911976    -4.1707271    -1.3869704
C           2.9714786    -2.3906491    -0.2407917
H           3.8973232    -2.1614154    -0.7605429
C           2.5241229    -1.5323770     0.7729202
C           1.3314676    -1.8421729     1.4393962
H           0.9858565    -1.1945141     2.2410531
C           0.5871447    -2.9684860     1.0818352
H          -0.3382908    -3.1913147     1.6069573
30
121_C16H12N2_4-6-25-26 (105,) energy =    -726.4330383
C           4.9501851     1.6741450     2.3578827
H           5.5432714     2.4721340     2.7961661
C           5.2075195     0.3417212     2.6804395
H           6.0008203     0.0864681     3.3781396
C           4.4273258    -0.6664140     2.1171887
H           4.6016900    -1.7025290     2.3938631
C           3.3962276    -0.3821831     1.2088972
C           3.1512127     0.9697975     0.8702201
C           3.9268072     1.9782657     1.4661119
H           3.7126816     3.0092334     1.2062772
C           0.2978864     2.1892856    -1.9348818
H          -0.4410821     2.5102194    -2.6614161
C           0.6578833     2.9827524    -0.8477499
H           0.2077335     3.9625449    -0.6919039
N           1.5596162     2.5973101     0.0573440
C           2.1240433     1.3870465    -0.1243340
N           1.8627420     0.5580303    -1.1497260
C           0.9529102     0.9637327    -2.0373285
H           0.7494562     0.2824792    -2.8626155
C           1.0263256    -3.7850202     0.0496993
H           0.4362013    -4.6562475    -0.2223791
C           2.3275298    -3.6385477    -0.4346238
H           2.7543889    -4.3952000    -1.0881333
C           3.0860914    -2.5224234    -0.0819944
H           4.0968547    -2.4080663    -0.4642007
C           2.5521958    -1.5281053     0.7491087
C           1.2503188    -1.6926685     1.2435357
H           0.8342651    -0.9409927     1.9094839
C           0.4911075    -2.8088454     0.8919989
H          -0.5165026    -2.9201142     1.2846803
30
121_C16H12N2_4-6-25-26 (120,) energy =    -726.4336544
C           4.9852591     1.6494840     2.3154353
H           5.5824494     2.4492054     2.7447590
C           5.2849739     0.3153934     2.5908855
H           6.1170308     0.0609902     3.2421687
C           4.4971137    -0.6959274     2.0449084
H           4.6998301    -1.7332110     2.2966078