30
121_C16H12N2_8-7-15-16 (-165,) energy =    -726.4322641
C           5.2009354     1.5472048     1.9091904
H           5.8937680     2.3142526     2.2442514
C           5.4857012     0.1969514     2.1097446
H           6.4043352    -0.1074907     2.6043971
C           4.5913559    -0.7666033     1.6502230
H           4.8285469    -1.8204516     1.7657260
C           3.3943357    -0.4249289     0.9993786
C           3.0825435     0.9509459     0.8455301
C           4.0148230     1.9104754     1.2823399
H           3.7711779     2.9559730     1.1351576
C          -0.4848328     2.4265880    -0.7902121
H          -1.4049912     2.8142680    -1.2142421
C           0.6354799     3.2314611    -0.5905500
H           0.6230243     4.2883100    -0.8552065
N           1.7730547     2.7663047    -0.0757382
C           1.8080214     1.4596192     0.2599695
N           0.7791390     0.6084419     0.1150338
C          -0.3484974     1.0952488    -0.4051736
H          -1.1708601     0.3889179    -0.5129043
C           1.2598542    -3.8323754    -0.5446137
H           0.7444448    -4.7064743    -0.9340017
C           1.3797670    -3.6421359     0.8319292
H           0.9552835    -4.3667984     1.5222226
C           2.0482079    -2.5222244     1.3301298
H           2.1380544    -2.3765901     2.4034259
C           2.5926217    -1.5675714     0.4614007
C           2.4749903    -1.7741741    -0.9213097
H           2.9097864    -1.0509944    -1.6061750
C           1.8140818    -2.8945536    -1.4198628
H           1.7362034    -3.0399148    -2.4944657
30
121_C16H12N2_8-7-15-16 (-150,) energy =    -726.4334342
C           5.1722372     1.5579585     1.9664631
H           5.8530777     2.3294672     2.3154162
C           5.4535192     0.2102890     2.1898396
H           6.3587893    -0.0849841     2.7138012
C           4.5775881    -0.7633005     1.7148795
H           4.8197982    -1.8145372     1.8434325
C           3.3985541    -0.4304249     1.0285987
C           3.0923828     0.9416600     0.8491103
C           4.0046709     1.9116220     1.2984666
H           3.7639170     2.9551307     1.1284073
C          -0.4703269     2.3696763    -0.8204426
H          -1.3926212     2.7453081    -1.2507639
C           0.7194060     3.0923991    -0.8760831
H           0.7630825     4.0694354    -1.3561180
N           1.8617184     2.6391843    -0.3564995
C           1.8228249     1.4316554     0.2414142
N           0.7242539     0.6661944     0.3619916
C          -0.4039239     1.1392173    -0.1698042
H          -1.2860284     0.5088924    -0.0637825
C           1.2453751    -3.7770725    -0.6154942
H           0.7214989    -4.6332970    -1.0322359
C           1.4559766    -3.6831050     0.7605551
H           1.0922079    -4.4646690     1.4227819
C           2.1336717    -2.5858936     1.2935017
H           2.2880506    -2.5127261     2.3667689
C           2.6010240    -1.5581213     0.4625400
C           2.3905581    -1.6677471    -0.9207269
H           2.7677116    -0.8902516    -1.5798244
C           1.7186162    -2.7654296    -1.4546568
H           1.5703277    -2.8351636    -2.5293622
30
121_C16H12N2_8-7-15-16 (-135,) energy =    -726.4335599
C           5.1378683     1.5629170     2.0510367
H           5.7949812     2.3393776     2.4328826
C           5.4342443     0.2165536     2.2631433
H           6.3294978    -0.0706465     2.8083161
C           4.5875567    -0.7660247     1.7539429
H           4.8420873    -1.8148678     1.8786386
C           3.4226017    -0.4396483     1.0415668
C           3.1105430     0.9281825     0.8580814
C           3.9859361     1.9080812     1.3500426
H           3.7360590     2.9510300     1.1844506
C          -0.4553244     2.3202077    -0.8222061
H          -1.3810021     2.6894952    -1.2508949
C           0.7723841     2.9208180    -1.0887473
H           0.8449063     3.7910222    -1.7400996
N           1.9202829     2.4733274    -0.5717160
C           1.8409803     1.3971780     0.2333514
N           0.7064013     0.7591999     0.5718271
C          -0.4246825     1.2233375     0.0376701
H          -1.3385204     0.7000817     0.3164042
C           1.2329100    -3.7294052    -0.6661426
H           0.6954047    -4.5689433    -1.0990863
C           1.5125624    -3.7033619     0.7009345
H           1.1881703    -4.5208637     1.3397447
C           2.2059858    -2.6273091     1.2549009
H           2.4094744    -2.6052592     2.3221458
C           2.6244628    -1.5534124     0.4552327
C           2.3421246    -1.5942427    -0.9193481
H           2.6807186    -0.7819570    -1.5570606
C           1.6526046    -2.6707361    -1.4745587
H           1.4497345    -2.6866615    -2.5424082
30
121_C16H12N2_8-7-15-16 (-120,) energy =    -726.4325072
C           5.1071443     1.5833239     2.1007108
H           5.7403061     2.3640509     2.5130690
C           5.4272524     0.2387820     2.2886413
H           6.3189693    -0.0410990     2.8432880
C           4.6085408    -0.7505046     1.7476412
H           4.8791214    -1.7965481     1.8619711
C           3.4495654    -0.4302230     1.0229062
C           3.1240760     0.9334775     0.8493616
C           3.9620575     1.9212201     1.3832616
H           3.6969354     2.9638440     1.2354265
C          -0.4475299     2.2863360    -0.8475849
H          -1.3752455     2.6485543    -1.2780630
C           0.7947615     2.7223773    -1.2999185
H           0.8777113     3.4504617    -2.1059198
N           1.9459195     2.2821567    -0.7803691
C           1.8492697     1.3806762     0.2129668
N           0.7041166     0.9132006     0.7397537
C          -0.4294111     1.3655592     0.1989948
H          -1.3542566     0.9813996     0.6274711
C           1.2212640    -3.6767052    -0.7168720
H           0.6700495    -4.5032761    -1.1574178
C           1.5585436    -3.6991389     0.6374699
H           1.2648521    -4.5413228     1.2587728
C           2.2680483    -2.6392399     1.2013168
H           2.5133800    -2.6538067     2.2597967
C           2.6487448    -1.5339518     0.4245826
C           2.3065433    -1.5253240    -0.9373702
H           2.6137776    -0.6890242    -1.5594038
C           1.5994072    -2.5858596    -1.5021014
H           1.3508565    -2.5635630    -2.5601011
30
121_C16H12N2_8-7-15-16 (-105,) energy =    -726.4308755
C           5.0844671     1.5870012     2.1690452
H           5.6968107     2.3666739     2.6136069
C           5.4345278     0.2444004     2.3104348
H           6.3293478    -0.0347205     2.8603953
C           4.6393162    -0.7433054     1.7333022
H           4.9278421    -1.7872107     1.8201417
C           3.4783750    -0.4224530     1.0111783
C           3.1296613     0.9382277     0.8761474
C           3.9359365     1.9246874     1.4557266
H           3.6495544     2.9671334     1.3478550
C          -0.4367873     2.2674630    -0.8562542
H          -1.3618941     2.6246065    -1.2965947
C           0.7995570     2.4940749    -1.4546501
H           0.8807016     3.0441672    -2.3912895
N           1.9474602     2.0572844    -0.9237909
C           1.8510043     1.3750661     0.2301056
N           0.7155980     1.1197443     0.9008771
C          -0.4161645     1.5622759     0.3455194
H          -1.3353899     1.3483153     0.8892855
C           1.2337005    -3.6428317    -0.7579405
H           0.6754828    -4.4614848    -1.2044218
C           1.6013597    -3.6941198     0.5877877
H           1.3247165    -4.5510866     1.1965558
C           2.3188458    -2.6438227     1.1590968
H           2.5867871    -2.6806782     2.2115221
C           2.6788380    -1.5194087     0.3989366
C           2.3054440    -1.4814046    -0.9546329
H           2.5955352    -0.6308507    -1.5645662
C           1.5896579    -2.5329794    -1.5263120
H           1.3172751    -2.4881772    -2.5777179
30
121_C16H12N2_8-7-15-16 (-90,) energy =    -726.4296177
C           5.0409001     1.5681716     2.2435857
H           5.6354612     2.3428514     2.7199147
C           5.4221530     0.2293470     2.3265261
H           6.3239471    -0.0514514     2.8640716
C           4.6464595    -0.7506412     1.7115030
H           4.9535672    -1.7916307     1.7619405
C           3.4791855    -0.4261136     1.0003140
C           3.1018840     0.9306381     0.9222721
C           3.8823841     1.9092664     1.5479042
H           3.5701988     2.9486111     1.4915571
C          -0.4565062     2.2643020    -0.8325776
H          -1.3775777     2.6235086    -1.2796656
C           0.7445639     2.2447516    -1.5365743
H           0.8010860     2.5942587    -2.5666131
N           1.8871905     1.8045339    -0.9978136
C           1.8231223     1.3737547     0.2734193
N           0.7241667     1.3613618     1.0444058
C          -0.4055244     1.8007883     0.4798340
H          -1.2955211     1.7850746     1.1075414
C           1.2630643    -3.6453076    -0.8074918
H           0.7113147    -4.4642431    -1.2615161
C           1.6185717    -3.7000552     0.5414224
H           1.3397765    -4.5599848     1.1449950
C           2.3274958    -2.6492226     1.1222076
H           2.5878369    -2.6882395     2.1765615
C           2.6904954    -1.5210083     0.3682997
C           2.3295847    -1.4787054    -0.9885761
H           2.6189427    -0.6238788    -1.5917982
C           1.6224474    -2.5318578    -1.5688505
H           1.3590739    -2.4846925    -2.6224865
30
121_C16H12N2_8-7-15-16 (-75,) energy =    -726.4306529
C           5.6288844     1.5315207     0.8451733
H           6.4010904     2.2937801     0.9011793
C           5.9407106     0.1900161     1.0638708
H           6.9592785    -0.1055880     1.3009462
C           4.9386126    -0.7749952     0.9888323
H           5.1768643    -1.8167443     1.1851751
C           3.6096844    -0.4329559     0.6901314
C           3.3034985     0.9265798     0.4674308
C           4.3156183     1.8900707     0.5467400
H           4.0651141     2.9314902     0.3642548
C          -0.4821556     2.2021801    -0.7737216
H          -1.4620260     2.5357525    -1.0991107
C           0.3668595     1.4809663    -1.6107243
H           0.0726511     1.2260614    -2.6279994
N           1.5763744     1.0650861    -1.2236588
C           1.9428129     1.3759876     0.0303406
N           1.2033160     2.0584668     0.9210280
C          -0.0006442     2.4681616     0.5051641
H          -0.5964957     3.0236415     1.2282463
C           0.6856465    -3.5922993     0.5965084
H          -0.0459212    -4.3958187     0.5790370
C           0.4446300    -2.4382453     1.3441128
H          -0.4727626    -2.3433327     1.9195109
C           1.3819634    -1.4057896     1.3671200
H           1.1955094    -0.5195864     1.9664498
C           2.5800342    -1.5080378     0.6411081
C           2.8122527    -2.6763249    -0.1024840
H           3.7276672    -2.7635750    -0.6814246
C           1.8738586    -3.7074167    -0.1271435
H           2.0694555    -4.5994639    -0.7166609
30
121_C16H12N2_8-7-15-16 (-60,) energy =    -726.4322582
C           5.6098532     1.5384473     0.9114470
H           6.3740499     2.3051224     1.0045501
C           5.9334910     0.1921079     1.0784891
H           6.9530966    -0.1029735     1.3118378
C           4.9406999    -0.7787213     0.9620110
H           5.1863336    -1.8238936     1.1286474
C           3.6112928    -0.4391731     0.6642580
C           3.2941871     0.9254549     0.4837906
C           4.2959782     1.8955083     0.6168965
H           4.0320656     2.9397409     0.4769941
C          -0.4728257     2.2320004    -0.7706126
H          -1.4489032     2.5737472    -1.0987482
C           0.2659873     1.3012541    -1.4993220
H          -0.1141170     0.8848040    -2.4312797
N           1.4678268     0.8713157    -1.1076730
C           1.9425827     1.3824993     0.0410341
N           1.3153946     2.2807371     0.8208095
C           0.1156314     2.6982680     0.4017771
H          -0.3884358     3.4276209     1.0346895
C           0.7128620    -3.6206177     0.5583834
H          -0.0117994    -4.4303576     0.5405547
C           0.4717300    -2.4781178     1.3239165
H          -0.4387989    -2.3982577     1.9123205
C           1.4008314    -1.4388641     1.3470739
H           1.2144796    -0.5612717     1.9599482
C           2.5896794    -1.5210978     0.6040370
C           2.8226292    -2.6776253    -0.1563645
H           3.7313871    -2.7497850    -0.7477355
C           1.8924150    -3.7162605    -0.1818841
H           2.0877960    -4.5992200    -0.7850082
30
121_C16H12N2_8-7-15-16 (-45,) energy =    -726.4334448
C           5.5657890     1.5455811     0.9912647
H           6.3201670     2.3161737     1.1238587
C           5.9007243     0.1972200     1.1147833
H           6.9199279    -0.0967786     1.3513397
C           4.9176295    -0.7772045     0.9544430
H           5.1691181    -1.8246696     1.0957111
C           3.5884751    -0.4418145     0.6509564
C           3.2622067     0.9260751     0.4981127
C           4.2540272     1.8996057     0.6884109
H           3.9787166     2.9439124     0.5803872
C          -0.4706801     2.2984480    -0.7881688
H          -1.4364478     2.6602245    -1.1250683
C           0.1495380     1.1942145    -1.3708960
H          -0.3169298     0.6565899    -2.1954541
N           1.3363525     0.7383448    -0.9658691
C           1.9200244     1.3965278     0.0511757
N           1.4141390     2.4753715     0.6772096
C           0.2270039     2.9139773     0.2477738
H          -0.1765287     3.7877508     0.7580642
C           0.7540745    -3.6801980     0.5400159
H           0.0476911    -4.5059884     0.5238849
C           0.5162619    -2.5668487     1.3488802
H          -0.3735128    -2.5260987     1.9720440
C           1.4221696    -1.5078146     1.3698249
H           1.2395891    -0.6524219     2.0148187
C           2.5833246    -1.5397205     0.5812647
C           2.8153029    -2.6676968    -0.2200623
H           3.7046978    -2.7021176    -0.8435019
C           1.9075247    -3.7263737    -0.2443763
H           2.1009300    -4.5867762    -0.8799135
30
121_C16H12N2_8-7-15-16 (-30,) energy =    -726.4335506
C           5.5522079     1.5339069     1.0512438
H           6.3020815     2.3020412     1.2191361
C           5.8874114     0.1834717     1.1475661
H           6.9023411    -0.1166914     1.3946368
C           4.9063579    -0.7855081     0.9485765
H           5.1536159    -1.8361402     1.0724181
C           3.5814616    -0.4450611     0.6317504
C           3.2579507     0.9267996     0.4882929
C           4.2476996     1.8942275     0.7293811
H           3.9730702     2.9393707     0.6380272
C          -0.4458031     2.3619874    -0.8273300
H          -1.4017667     2.7408732    -1.1730300
C           0.0478656     1.1217731    -1.2280035
H          -0.5109193     0.4879318    -1.9155121
N           1.2211280     0.6447762    -0.8095237
C           1.9228153     1.4147137     0.0408760
N           1.5456427     2.6345876     0.4716384
C           0.3702609     3.0912529     0.0343768
H           0.0745347     4.0775696     0.3901939
C           0.8110421    -3.7387979     0.5188879
H           0.1238015    -4.5806568     0.5051438
C           0.5951674    -2.6689665     1.3907634
H          -0.2580790    -2.6784797     2.0643304
C           1.4763197    -1.5896473     1.4088273
H           1.3106260    -0.7668072     2.0992325
C           2.5894607    -1.5570138     0.5545551
C           2.8027975    -2.6422419    -0.3072182
H           3.6586842    -2.6282689    -0.9767726
C           1.9185000    -3.7212575    -0.3297657
H           2.0958132    -4.5483005    -1.0126012
30
121_C16H12N2_8-7-15-16 (-15,) energy =    -726.4324724
C           5.5298188     1.5255439     1.1187043
H           6.2768718     2.2901481     1.3134461
C           5.8580704     0.1732451     1.2092245
H           6.8658253    -0.1346831     1.4754297
C           4.8758366    -0.7868988     0.9790758
H           5.1148919    -1.8403332     1.0944611
C           3.5579330    -0.4394834     0.6392102
C           3.2433393     0.9360790     0.4904982
C           4.2361869     1.8937071     0.7675013
H           3.9702116     2.9401193     0.6751026
C          -0.4351371     2.4207562    -0.8629951
H          -1.3820242     2.8121916    -1.2193178
C          -0.0747228     1.0856696    -1.0293636
H          -0.7340406     0.3815743    -1.5356738
N           1.0868167     0.5944177    -0.5954312
C           1.9160579     1.4429167     0.0356210
N           1.6705038     2.7564287     0.2218229
C           0.5051740     3.2259933    -0.2229551
H           0.3205624     4.2876203    -0.0617987
C           0.8685124    -3.7997115     0.4820803
H           0.2059892    -4.6609932     0.4585820
C           0.6802208    -2.7926468     1.4322535
H          -0.1273241    -2.8709752     2.1559025
C           1.5293748    -1.6886936     1.4626783
H           1.3829974    -0.9123121     2.2089240
C           2.5820679    -1.5678852     0.5428483
C           2.7717386    -2.5911697    -0.3953094
H           3.5857888    -2.5111622    -1.1109473
C           1.9176290    -3.6947580    -0.4311872
H           2.0751451    -4.4732927    -1.1733915
30
121_C16H12N2_8-7-15-16 (0,) energy =    -726.4312544
C           5.5153502     1.5165654     1.1819972
H           6.2829895     2.2727209     1.3223777
C           5.7649808     0.1832722     1.5047217
H           6.7301587    -0.1195339     1.9022282
C           4.7642063    -0.7651926     1.3091099
H           4.9541693    -1.8071442     1.5509044
C           3.5019681    -0.4253910     0.7960108
C           3.2457958     0.9341820     0.4810991
C           4.2719274     1.8782715     0.6787409
H           4.0620788     2.9114997     0.4302082
C          -0.3954099     2.4140740    -0.9868827
H          -1.3343103     2.8041849    -1.3650878
C          -0.2137116     1.0639425    -0.7005880
H          -1.0163272     0.3417975    -0.8459708
N           0.9372961     0.5759023    -0.2355191
C           1.9450877     1.4422375    -0.0465743
N           1.8653075     2.7680603    -0.2894139
C           0.7075472     3.2343228    -0.7535896
H           0.6616511     4.3060656    -0.9445909
C           0.9131517    -3.8434174     0.3657489
H           0.2807750    -4.7216713     0.2647913
C           0.9957994    -3.1732049     1.5868948
H           0.4280924    -3.5281982     2.4434586
C           1.8122334    -2.0486873     1.7168079
H           1.8763431    -1.5311397     2.6703740
C           2.5470093    -1.5696312     0.6249819
C           2.4691556    -2.2576811    -0.5933483
H           3.0466128    -1.9028059    -1.4428837
C           1.6559663    -3.3827854    -0.7235627
H           1.6059110    -3.9036856    -1.6765606
30
121_C16H12N2_8-7-15-16 (15,) energy =    -726.4324726
C           5.4906915     1.5349823     1.2363711
H           6.2666226     2.2876405     1.3461315
C           5.6923477     0.2358138     1.7012434
H           6.6277046    -0.0418144     2.1800895
C           4.6918300    -0.7170752     1.5262709
H           4.8622388    -1.7417463     1.8444042
C           3.4688349    -0.4096491     0.9076995
C           3.2451856     0.9276389     0.4892960
C           4.2819242     1.8674220     0.6356478
H           4.1032152     2.8773242     0.2857530
C          -0.3678229     2.3805884    -1.0606439
H          -1.3018670     2.7649833    -1.4563492
C          -0.2933170     1.1651273    -0.3844467
H          -1.1807301     0.5551545    -0.2193931
N           0.8495871     0.6833790     0.1058467
C           1.9591966     1.4163343    -0.0877210
N           1.9860352     2.6160769    -0.7042144
C           0.8317426     3.0792920    -1.1832114
H           0.8707934     4.0476627    -1.6810394
C           0.9507474    -3.8410887     0.2526219
H           0.3365208    -4.7225332     0.0880787
C           1.2435704    -3.4205726     1.5500144
H           0.8553817    -3.9715205     2.4029823
C           2.0380789    -2.2920950     1.7597196
H           2.2613025    -1.9651194     2.7718954
C           2.5393038    -1.5575546     0.6769910
C           2.2464791    -1.9952943    -0.6235832
H           2.6458999    -1.4465918    -1.4723902
C           1.4590722    -3.1250195    -0.8342686
H           1.2464193    -3.4515524    -1.8492054
30
121_C16H12N2_8-7-15-16 (30,) energy =    -726.4335505
C           5.4803657     1.5429546     1.3380615
H           6.2453338     2.3030321     1.4708940
C           5.6841602     0.2435077     1.8020682
H           6.6123798    -0.0251523     2.2995181
C           4.6988149    -0.7211876     1.6035187
H           4.8761516    -1.7454094     1.9194835
C           3.4861105    -0.4213080     0.9624067
C           3.2650571     0.9114756     0.5360532
C           4.2825076     1.8648261     0.7082149
H           4.1025100     2.8734008     0.3526128
C          -0.3404138     2.3227210    -1.0505797
H          -1.2739623     2.6968327    -1.4573292
C          -0.2992100     1.2670867    -0.1416638
H          -1.2123963     0.7821162     0.2011901
N           0.8420077     0.7980261     0.3652994
C           1.9787096     1.3851029    -0.0486768
N           2.0462262     2.4229119    -0.9057358
C           0.8904087     2.8769281    -1.3947328
H           0.9567813     3.7149524    -2.0877107
C           0.9219336    -3.7945105     0.1988312
H           0.2921260    -4.6587664     0.0048455
C           1.2944988    -3.4749569     1.5049964
H           0.9515982    -4.0870551     2.3353246
C           2.1073924    -2.3681959     1.7520640
H           2.3871553    -2.1174194     2.7718189
C           2.5520929    -1.5549767     0.7000591
C           2.1771025    -1.8908654    -0.6100991
H           2.5332683    -1.2837913    -1.4382184
C           1.3693198    -2.9988000    -0.8585175
H           1.0944779    -3.2461547    -1.8808132
30
121_C16H12N2_8-7-15-16 (45,) energy =    -726.4334447
C           5.4610807     1.5655257     1.4092795
H           6.2089411     2.3364100     1.5733628
C           5.6802548     0.2603373     1.8497014
H           6.6053410    -0.0008174     2.3568326
C           4.7158441    -0.7186594     1.6191158
H           4.9063051    -1.7446362     1.9215846
C           3.5081551    -0.4255911     0.9657915
C           3.2799737     0.9064484     0.5480182
C           4.2692472     1.8777950     0.7613656
H           4.0794313     2.8904742     0.4200536
C          -0.3342067     2.2532341    -1.0633129
H          -1.2711193     2.6091969    -1.4787356
C          -0.2912076     1.3828087     0.0248389
H          -1.2055915     1.0325694     0.5020850
N           0.8537489     0.9367275     0.5449238
C           1.9877599     1.3645884    -0.0374937
N           2.0592987     2.2088365    -1.0833799
C           0.8978673     2.6443288    -1.5808650
H           0.9626854     3.3277743    -2.4266875
C           0.9002070    -3.7499231     0.1400314
H           0.2555292    -4.5993230    -0.0698992
C           1.3402785    -3.5060707     1.4418567
H           1.0344649    -4.1620655     2.2528801
C           2.1706967    -2.4178503     1.7095087
H           2.4989252    -2.2240448     2.7271422
C           2.5696304    -1.5481338     0.6834944
C           2.1245867    -1.8074965    -0.6225701
H           2.4441430    -1.1579043    -1.4330870
C           1.2976454    -2.8967347    -0.8916729
H           0.9696005    -3.0842569    -1.9109512
30
121_C16H12N2_8-7-15-16 (60,) energy =    -726.4322582
C           5.4473804     1.5819935     1.4981845
H           6.1790556     2.3596230     1.6991651
C           5.6839594     0.2670073     1.8983166
H           6.6072636     0.0054169     2.4084233
C           4.7384648    -0.7201500     1.6276712
H           4.9399832    -1.7506398     1.9068911
C           3.5343885    -0.4245720     0.9687913
C           3.2966177     0.9119703     0.5783159
C           4.2591470     1.8949991     0.8419314
H           4.0592521     2.9164923     0.5317052
C          -0.3313241     2.1845779    -1.0615057
H          -1.2729958     2.5181626    -1.4847860
C          -0.2662858     1.5275995     0.1662180
H          -1.1658067     1.3281159     0.7471837
N           0.8848897     1.1110773     0.6990911
C           1.9982923     1.3554308    -0.0128220
N           2.0497063     1.9772444    -1.2040265
C           0.8825986     2.3888021    -1.7117999
H           0.9282815     2.8941482    -2.6757284
C           0.8839873    -3.7003110     0.0865585
H           0.2252499    -4.5353334    -0.1369265
C           1.3667960    -3.5132057     1.3828456
H           1.0800347    -4.1989297     2.1759988
C           2.2139016    -2.4427954     1.6680672
H           2.5732996    -2.2919964     2.6823987
C           2.5899351    -1.5353796     0.6654755
C           2.1002772    -1.7367946    -0.6352507
H           2.3996436    -1.0579282    -1.4290001
C           1.2554250    -2.8083228    -0.9213765
H           0.8934109    -2.9513050    -1.9363405
30
121_C16H12N2_8-7-15-16 (75,) energy =    -726.4306528
C           5.4220680     1.5935187     1.5616664
H           6.1371699     2.3770339     1.7966532
C           5.6807910     0.2692645     1.9139151
H           6.6056055     0.0063317     2.4205221
C           4.7533725    -0.7234087     1.6047124
H           4.9672981    -1.7586390     1.8558737
C           3.5492118    -0.4251907     0.9464039
C           3.2941906     0.9179238     0.5961014
C           4.2320072     1.9088337     0.9085364
H           4.0167618     2.9393530     0.6396606
C          -0.3431390     2.1562146    -1.0575390
H          -1.2868859     2.4809761    -1.4831700
C          -0.2371517     1.7371425     0.2671140
H          -1.1052482     1.7215968     0.9248030
N           0.9185491     1.3358322     0.8046895
C           1.9914084     1.3520056    -0.0028757
N           2.0011403     1.7290893    -1.2927163
C           0.8320043     2.1320869    -1.8036155
H           0.8435647     2.4399125    -2.8483933
C           0.8878493    -3.6849982     0.0343767
H           0.2244171    -4.5146822    -0.1950810
C           1.3856447    -3.5197291     1.3280793
H           1.1061824    -4.2175087     2.1132716
C           2.2380232    -2.4556710     1.6206280
H           2.6087390    -2.3216919     2.6332457
C           2.6057393    -1.5328877     0.6281669
C           2.1004958    -1.7118352    -0.6701094
H           2.3926057    -1.0214268    -1.4558237
C           1.2498391    -2.7775874    -0.9628562
H           0.8760740    -2.9035717    -1.9758249
30
121_C16H12N2_8-7-15-16 (90,) energy =    -726.4296248
C           5.4363721     1.5971640     1.4556229
H           6.1389680     2.3871254     1.7063257
C           5.8286487     0.2597851     1.5001339
H           6.8407692    -0.0064822     1.7929795
C           4.9153192    -0.7400540     1.1735966
H           5.2155138    -1.7831244     1.2236422
C           3.5957601    -0.4371133     0.7990972
C           3.2082536     0.9185527     0.7554672
C           4.1331896     1.9174617     1.0793857
H           3.8248638     2.9581677     1.0275074
C          -0.5321400     2.2338560    -0.5853179
H          -1.4963091     2.5878798    -0.9351194
C          -0.2672307     2.0333744     0.7668061
H          -1.0243249     2.2290294     1.5249885
N           0.9162548     1.5957450     1.2111951
C           1.8529941     1.3526156     0.2790121
N           1.7084433     1.5252418    -1.0443524
C           0.5141344     1.9578381    -1.4621789
H           0.3991691     2.0908383    -2.5370876
C           0.9793872    -3.7207865    -0.1601560
H           0.3261999    -4.5561047    -0.3985148
C           0.5818389    -2.7612402     0.7724995
H          -0.3801043    -2.8518401     1.2707232
C           1.4176803    -1.6874066     1.0796590
H           1.1086950    -0.9524548     1.8162373
C           2.6695399    -1.5537917     0.4570558
C           3.0599795    -2.5290335    -0.4752191
H           4.0204958    -2.4312589    -0.9739679
C           2.2226779    -3.6006768    -0.7834815
H           2.5404398    -4.3395939    -1.5146291
30
121_C16H12N2_8-7-15-16 (105,) energy =    -726.4308756
C           5.4136852     1.5993232     1.5275745
H           6.1036386     2.3892405     1.8112783
C           5.8312107     0.2688141     1.5042449
H           6.8500387     0.0081349     1.7782897
C           4.9338907    -0.7325110     1.1392983
H           5.2516860    -1.7714825     1.1482483
C           3.6081144    -0.4362160     0.7833449
C           3.1950514     0.9129087     0.8061200
C           4.1016417     1.9124901     1.1776300
H           3.7693193     2.9468343     1.1836193
C          -0.5343226     2.2300219    -0.5519553
H          -1.4957198     2.5851172    -0.9081729
C          -0.1817565     2.2840899     0.7936868
H          -0.8634554     2.6901923     1.5399128
N           0.9990847     1.8475230     1.2467761
C           1.8416557     1.3424181     0.3296256
N           1.6115498     1.2631814    -0.9913720
C           0.4226470     1.7008418    -1.4157614
H           0.2372892     1.6295815    -2.4867441
C           0.9961662    -3.7091702    -0.2186900
H           0.3428034    -4.5416190    -0.4662608
C           0.5878978    -2.7454067     0.7050829
H          -0.3825736    -2.8296188     1.1875291
C           1.4250138    -1.6763042     1.0232812
H           1.1076698    -0.9419007     1.7578197
C           2.6881790    -1.5500305     0.4220702
C           3.0885287    -2.5290179    -0.5015039
H           4.0563918    -2.4363393    -0.9866822
C           2.2505030    -3.5966890    -0.8210433
H           2.5761765    -4.3385511    -1.5456792
30
121_C16H12N2_8-7-15-16 (120,) energy =    -726.4325072
C           5.3780914     1.5845891     1.5887395
H           6.0576477     2.3694832     1.9090644
C           5.8107860     0.2607677     1.5122433
H           6.8311709     0.0001370     1.7805905
C           4.9250491    -0.7352869     1.1060401
H           5.2519565    -1.7711916     1.0833724