15
167_C5H8O2_3-0-1-10 (-165,) energy =    -345.7745920
O           1.1698669    -0.9667910     0.0655088
C           2.2350699    -1.0539080    -0.7669217
O           2.2542629    -1.7569836    -1.7580598
C           0.1509056    -1.9581116    -0.1384823
H           0.5749298    -2.9625453    -0.0526158
H          -0.5869930    -1.7852943     0.6457587
H          -0.3076198    -1.8509225    -1.1251381
C           4.3317503     0.3320339    -1.3029517
H           4.7483063     1.3131539    -1.0952282
H           4.0800697     0.1433718    -2.3419686
C           3.3780518    -0.2452446    -0.2698271
H           3.1919342     0.3229352     0.6348867
C           4.7684659    -0.8309643    -0.4762532
H           4.8117727    -1.8031866    -0.9569204
H           5.4893006    -0.6714532     0.3202218
15
167_C5H8O2_3-0-1-10 (-150,) energy =    -345.7708805
O           1.1053592    -0.8675005    -0.0432863
C           2.1897248    -0.9467575    -0.8579853
O           2.2180803    -1.6201226    -1.8684052
C           0.2142613    -1.9923329    -0.0956823
H           0.7561908    -2.9134117     0.1399223
H          -0.5491514    -1.7985502     0.6588134
H          -0.2437561    -2.0903529    -1.0834091
C           4.3834443     0.3395256    -1.2617759
H           4.8482803     1.2853838    -1.0001815
H           4.1659591     0.2029363    -2.3165830
C           3.3528684    -0.2151921    -0.2921617
H           3.1626081     0.3293773     0.6259828
C           4.7153356    -0.8761978    -0.4634293
H           4.7228443    -1.8317233    -0.9780849
H           5.4074140    -0.7885654     0.3689714
15
167_C5H8O2_3-0-1-10 (-135,) energy =    -345.7657320
O           1.0312703    -0.7911825    -0.1520860
C           2.1327885    -0.8509624    -0.9573121
O           2.1518442    -1.4443889    -2.0152569
C           0.2706309    -2.0030740    -0.0469255
H           0.8357454    -2.7468408     0.5262287
H          -0.6438282    -1.7430904     0.4881880
H           0.0290302    -2.4045186    -1.0343686
C           4.3989027     0.3471090    -1.2326713
H           4.9054286     1.2470938    -0.8971444
H           4.1981173     0.2944975    -2.2982565
C           3.3171371    -0.2151127    -0.3246978
H           3.1349116     0.2746764     0.6252172
C           4.6491969    -0.9351362    -0.5144918
H           4.6189421    -1.8531730    -1.0926010
H           5.3238001    -0.9410020     0.3366591
15
167_C5H8O2_3-0-1-10 (-120,) energy =    -345.7605474
O           0.9606823    -0.7279847    -0.3012529
C           2.1030884    -0.7872712    -1.0600736
O           2.1389887    -1.3159832    -2.1495643
C           0.3412092    -1.9882335    -0.0174583
H           0.9455464    -2.5525895     0.7033776
H          -0.6317715    -1.7621429     0.4218370
H           0.2086321    -2.5755852    -0.9311841
C           4.4155238     0.3454241    -1.1965603
H           4.9361434     1.2107852    -0.7976099
H           4.2489620     0.3541967    -2.2692863
C           3.2844205    -0.2266278    -0.3557017
H           3.0848132     0.2211753     0.6112324
C           4.6016174    -0.9781507    -0.5386517
H           4.5633787    -1.8644671    -1.1639253
H           5.2448459    -1.0488464     0.3336242
15
167_C5H8O2_3-0-1-10 (-105,) energy =    -345.7564902
O           0.8934982    -0.7054143    -0.4738501
C           2.0896790    -0.7862554    -1.1552065
O           2.1662178    -1.2560696    -2.2672847
C           0.3948251    -1.9485352     0.0283462
H           1.0391852    -2.3339694     0.8296450
H          -0.5979189    -1.7422093     0.4320352
H           0.3182103    -2.6927465    -0.7723642
C           4.4018492     0.3507124    -1.1400080
H           4.8987073     1.1944433    -0.6706530
H           4.2695107     0.4249809    -2.2149111
C           3.2457164    -0.2793590    -0.3729054
H           3.0108905     0.1151800     0.6092754
C           4.5759898    -1.0072993    -0.5565364
H           4.5641756    -1.8552834    -1.2340118
H           5.1915446    -1.1258685     0.3303704
15
167_C5H8O2_3-0-1-10 (-90,) energy =    -345.7547205
O           0.8225375    -0.7322401    -0.6436222
C           2.0581407    -0.8208739    -1.2563870
O           2.1733211    -1.2065687    -2.3954689
C           0.4244866    -1.8953521     0.0850245
H           1.1154977    -2.1090835     0.9123662
H          -0.5652586    -1.6803675     0.4916850
H           0.3661654    -2.7691189    -0.5752216
C           4.3446601     0.3437464    -1.1027261
H           4.8064434     1.1685808    -0.5683958
H           4.2358809     0.4828867    -2.1737070
C           3.1857904    -0.3610665    -0.4050362
H           2.9194431    -0.0276973     0.5921287
C           4.5369952    -1.0433805    -0.5992550
H           4.5618270    -1.8471255    -1.3285638
H           5.1361357    -1.2028602     0.2924797
15
167_C5H8O2_3-0-1-10 (-75,) energy =    -345.7552804
O           0.7911314    -0.8159052    -0.8044721
C           2.0545046    -0.8638533    -1.3548332
O           2.2144684    -1.1402489    -2.5197246
C           0.4666358    -1.8537506     0.1215149
H           1.1733976    -1.8916967     0.9618073
H          -0.5298759    -1.6249902     0.5033981
H           0.4487898    -2.8289129    -0.3800037
C           4.3041083     0.3347033    -1.0582557
H           4.7267571     1.1375342    -0.4615266
H           4.2223117     0.5347992    -2.1217648
C           3.1481928    -0.4420886    -0.4378373
H           2.8504032    -0.1720694     0.5699632
C           4.5217500    -1.0751360    -0.6307803
H           4.5904893    -1.8318586    -1.4062356
H           5.1032858    -1.2713048     0.2653045
15
167_C5H8O2_3-0-1-10 (-60,) energy =    -345.7569402
O           0.7820325    -0.9069166    -0.9074455
C           2.0583705    -0.8583139    -1.4114967
O           2.2479920    -1.0095036    -2.5955722
C           0.5121046    -1.8130141     0.1630154
H           1.1730388    -1.6552847     1.0245112
H          -0.5191527    -1.6255990     0.4671925
H           0.6056835    -2.8506731    -0.1783541
C           4.2883343     0.3365391    -1.0033054
H           4.6936855     1.1094338    -0.3570131
H           4.2252296     0.5902484    -2.0563572
C           3.1286950    -0.4787425    -0.4461496
H           2.8175319    -0.2619951     0.5702545
C           4.5102771    -1.0924459    -0.6443043
H           4.6002288    -1.8064258    -1.4572496
H           5.0781301    -1.3312910     0.2502285
15
167_C5H8O2_3-0-1-10 (-45,) energy =    -345.7588583
O           0.7731447    -0.9750212    -0.9844767
C           2.0523699    -0.8668695    -1.4571108
O           2.2489572    -0.9140208    -2.6495770
C           0.5279540    -1.7269736     0.2066975
H           0.8207162    -1.1808297     1.1120736
H          -0.5499196    -1.8967418     0.2322147
H           1.0435222    -2.6932330     0.1813880
C           4.2698033     0.3107734    -0.9515473
H           4.6738590     1.0251586    -0.2402756
H           4.1958426     0.6584622    -1.9765695
C           3.1218772    -0.5626934    -0.4628012
H           2.8214860    -0.4451452     0.5725334
C           4.5070586    -1.1429262    -0.7259853
H           4.5957745    -1.7788183    -1.6013600
H           5.0846605    -1.4563015     0.1387854
15
167_C5H8O2_3-0-1-10 (-30,) energy =    -345.7609619
O           0.7836297    -1.0899478    -1.0586831
C           2.0605427    -0.8964923    -1.4957930
O           2.2711521    -0.8638736    -2.6873897
C           0.5370186    -1.6657385     0.2266900
H           0.6484378    -0.9299563     1.0323356
H          -0.4995005    -2.0071346     0.2022543
H           1.1929260    -2.5215786     0.4180926
C           4.2451968     0.2998980    -0.9020401
H           4.6341619     0.9716060    -0.1423654
H           4.1605001     0.7167916    -1.9000452
C           3.1196732    -0.6335287    -0.4768585
H           2.8246227    -0.5991422     0.5656089
C           4.5178922    -1.1601222    -0.7823239
H           4.6179175    -1.7290341    -1.7013264
H           5.1040707    -1.5217932     0.0574350
15
167_C5H8O2_3-0-1-10 (-15,) energy =    -345.7622531
O           0.7970763    -1.2338911    -1.1206285
C           2.0605050    -0.9410173    -1.5348587
O           2.2701825    -0.8510883    -2.7242991
C           0.5253344    -1.6203093     0.2278939
H           0.6143123    -0.7747370     0.9199132
H          -0.5087519    -1.9695782     0.2278009
H           1.1788281    -2.4360939     0.5553360
C           4.2044812     0.3004673    -0.8932802
H           4.5828406     0.9399936    -0.1011749
H           4.0900757     0.7711091    -1.8640941
C           3.1178758    -0.6954428    -0.5088458
H           2.8409663    -0.7319779     0.5378457
C           4.5280676    -1.1536584    -0.8640258
H           4.6324963    -1.6634071    -1.8164614
H           5.1379225    -1.5438856    -0.0544130
15
167_C5H8O2_3-0-1-10 (0,) energy =    -345.7626684
O           0.8432632    -1.4005333    -1.1424086
C           2.0904890    -1.0265978    -1.5386937
O           2.3018284    -0.9047220    -2.7252017
C           0.5086002    -1.5670721     0.2361613
H           0.6198853    -0.6326788     0.7976553
H          -0.5416868    -1.8637650     0.2454024
H           1.1056327    -2.3559131     0.7074104
C           4.1609197     0.3037623    -0.8274679
H           4.5123713     0.9085244     0.0034508
H           4.0051525     0.8342371    -1.7611583
C           3.1416306    -0.7825832    -0.5056984
H           2.8860484    -0.9155692     0.5382468
C           4.5714054    -1.1262008    -0.9071829
H           4.6923671    -1.5598790    -1.8944262
H           5.2130510    -1.5348275    -0.1319785
15
167_C5H8O2_3-0-1-10 (15,) energy =    -345.7622530
O           0.8921986    -1.5664327    -1.1388274
C           2.1086268    -1.1083632    -1.5440040
O           2.3004309    -0.9556692    -2.7300436
C           0.4963287    -1.5171755     0.2332037
H           0.6324929    -0.5171832     0.6589352
H          -0.5664819    -1.7656105     0.2385193
H           1.0360013    -2.2538914     0.8397096
C           4.1157635     0.2998755    -0.7852377
H           4.4521607     0.8698033     0.0759860
H           3.9111813     0.8800126    -1.6793689
C           3.1657219    -0.8622187    -0.5178313
H           2.9398118    -1.0801929     0.5189848
C           4.6025456    -1.0965541    -0.9667127
H           4.7258475    -1.4588685    -1.9818850
H           5.2813524    -1.5169452    -0.2304633
15
167_C5H8O2_3-0-1-10 (30,) energy =    -345.7609619
O           1.4162660    -2.3501749    -0.1205318
C           2.6256384    -2.0220969    -0.6578226
O           3.2885369    -2.8911360    -1.1780986
C           0.3869239    -1.3654179     0.0029522
H           0.3056834    -0.7511162    -0.9000145
H          -0.5403761    -1.9246356     0.1404628
H           0.5427219    -0.7184562     0.8747409
C           3.9569780    -0.0405816    -1.6159679
H           3.8319888     1.0164024    -1.8322546
H           4.0935360    -0.6817919    -2.4810935
C           3.1143678    -0.6218754    -0.4855894
H           2.4894809     0.0701649     0.0672020
C           4.6206551    -0.4476371    -0.3454714
H           5.2038640    -1.3624061    -0.3520043
H           4.9601610     0.3226800     0.3407724
15
167_C5H8O2_3-0-1-10 (45,) energy =    -345.7588584
O           1.4419284    -2.3071913     0.0073171
C           2.6202466    -1.9979717    -0.6151558
O           3.2290577    -2.8669878    -1.1956748
C           0.3547465    -1.3803159    -0.0513606
H           0.2010845    -1.0100821    -1.0708776
H          -0.5279168    -1.9399775     0.2632426
H           0.4945139    -0.5304361     0.6282349
C           3.9358130    -0.0021343    -1.5755512
H           3.8203164     1.0653492    -1.7393389
H           4.0083714    -0.6060782    -2.4747313
C           3.1495024    -0.6167133    -0.4228145
H           2.5697602     0.0576560     0.1977441
C           4.6649008    -0.4759468    -0.3655044
H           5.2285164    -1.3996328    -0.4439862
H           5.0589626     0.2583720     0.3309061
15
167_C5H8O2_3-0-1-10 (60,) energy =    -345.7569404
O           1.4540436    -2.2460015     0.0896652
C           2.6107331    -1.9578662    -0.5923666
O           3.1535372    -2.8127755    -1.2521500
C           0.3135257    -1.4155959    -0.1332993
H          -0.0529120    -1.5325949    -1.1599805
H          -0.4530339    -1.7583998     0.5638508
H           0.5213028    -0.3552612     0.0573676
C           3.9318200     0.0616739    -1.5036623
H           3.8384306     1.1403130    -1.5902720
H           3.9355342    -0.4818643    -2.4435055
C           3.1946175    -0.6082376    -0.3493253
H           2.6703641     0.0336941     0.3506016
C           4.7143857    -0.5109561    -0.3723341
H           5.2452231    -1.4415689    -0.5438879
H           5.1692079     0.1639850     0.3466615
15
167_C5H8O2_3-0-1-10 (75,) energy =    -345.7552802
O           1.4811691    -2.1644831     0.2018117
C           2.5943519    -1.9066421    -0.5695079
O           3.0440628    -2.7468603    -1.3117972
C           0.2856460    -1.4745961    -0.1647324
H          -0.0617847    -1.7998938    -1.1528108
H          -0.4627194    -1.7348936     0.5858717
H           0.4244437    -0.3847605    -0.1707073
C           3.9467679     0.0926600    -1.4814726
H           3.8808781     1.1754054    -1.5359729
H           3.8990608    -0.4257379    -2.4342118
C           3.2324467    -0.5858697    -0.3178547
H           2.7482489     0.0466966     0.4188000
C           4.7540456    -0.5301395    -0.3960312
H           5.2511198    -1.4708204    -0.6099880
H           5.2547941     0.1116883     0.3226766
15
167_C5H8O2_3-0-1-10 (90,) energy =    -345.7547204
O           1.4712708    -2.0251952     0.3187132
C           2.5668188    -1.8344357    -0.5019261
O           2.9067537    -2.6681161    -1.3075006
C           0.2366786    -1.5205643    -0.1944621
H          -0.0179872    -2.0040272    -1.1453603
H          -0.5259775    -1.7574701     0.5494584
H           0.2744642    -0.4316643    -0.3377916
C           3.9596947     0.1083475    -1.4567173
H           3.9344922     1.1935833    -1.4917080
H           3.8326512    -0.3926776    -2.4113531
C           3.2834901    -0.5554403    -0.2604081
H           2.8641129     0.0829693     0.5096372
C           4.7995510    -0.5629537    -0.4278224
H           5.2411877    -1.5214159    -0.6818106
H           5.3699013     0.0454694     0.2676091
15
167_C5H8O2_3-0-1-10 (105,) energy =    -345.7564903
O           1.4673398    -1.8486921     0.3769838
C           2.5671870    -1.7365911    -0.4472310
O           2.8217084    -2.5601994    -1.2958731
C           0.2094105    -1.5780816    -0.2480078
H           0.0720926    -2.2007518    -1.1392330
H          -0.5591002    -1.8190866     0.4884562
H           0.1286229    -0.5179771    -0.5227580
C           3.9896990     0.1609419    -1.4265237
H           4.0011672     1.2469070    -1.4371557
H           3.7899229    -0.3136314    -2.3820785
C           3.3587197    -0.5037768    -0.2046334
H           3.0025828     0.1334659     0.5970177
C           4.8597748    -0.5629294    -0.4599859
H           5.2493125    -1.5309965    -0.7592577
H           5.4934014     0.0088529     0.2112952
15
167_C5H8O2_3-0-1-10 (120,) energy =    -345.7605474
O           1.4314279    -1.6663491     0.3977055
C           2.5365254    -1.6515940    -0.4165870
O           2.7192159    -2.4734620    -1.2877632
C           0.1671881    -1.6410382    -0.2757257
H           0.1232221    -2.4049794    -1.0579781
H          -0.5908707    -1.8435999     0.4826373
H          -0.0084728    -0.6503245    -0.7127207
C           4.0174620     0.1868109    -1.4062811
H           4.0813551     1.2709563    -1.3938311
H           3.7561047    -0.2546901    -2.3627065
C           3.4089841    -0.4748836    -0.1712677
H           3.1138292     0.1634618     0.6537824
C           4.8905124    -0.6012748    -0.4919488
H           5.2190466    -1.5793177    -0.8296588
H           5.5816283    -0.0759573     0.1603190
15
167_C5H8O2_3-0-1-10 (135,) energy =    -345.7657321
O           1.3855451    -1.4975960     0.3738726
C           2.4798649    -1.5431022    -0.4420273
O           2.6014706    -2.3410283    -1.3477318
C           0.1200831    -1.7030419    -0.2701060
H           0.1309437    -2.6084360    -0.8822461
H          -0.6164493    -1.7973806     0.5291398
H          -0.1222922    -0.8366907    -0.8959938
C           4.0655741     0.2284761    -1.3811656
H           4.1971655     1.3056358    -1.3364964
H           3.7729883    -0.1664678    -2.3488063
C           3.4258577    -0.4319899    -0.1632459
H           3.1735951     0.1975584     0.6826120
C           4.8940620    -0.6405124    -0.4973945
H           5.1604987    -1.6251081    -0.8690704
H           5.6206629    -0.1793065     0.1647650
15
167_C5H8O2_3-0-1-10 (150,) energy =    -345.7708806
O           1.3515189    -1.3581310     0.3222124
C           2.4268613    -1.4194969    -0.5058022
O           2.4912369    -2.1648585    -1.4626198
C           0.1056174    -1.7754285    -0.2571968
H           0.1289328    -2.8340308    -0.5288810
H          -0.6497682    -1.5970867     0.5090868
H          -0.1117795    -1.1819255    -1.1505405
C           4.1246396     0.3011688    -1.3401031
H           4.3282365     1.3625706    -1.2328353
H           3.8117999    -0.0162742    -2.3297091
C           3.4384557    -0.3855481    -0.1653321
H           3.2242219     0.2072360     0.7169763
C           4.8909178    -0.6722026    -0.5088404
H           5.0943440    -1.6480629    -0.9388214
H           5.6435869    -0.3000393     0.1797360
15
167_C5H8O2_3-0-1-10 (165,) energy =    -345.7745920
O           1.2977327    -1.2221720     0.2553080
C           2.3619757    -1.3082231    -0.5785024
O           2.3950167    -2.0396640    -1.5485211
C           0.0960772    -1.8496101    -0.2190099
H           0.2321494    -2.9296267    -0.3204170
H          -0.6646861    -1.6298890     0.5308984
H          -0.1908614    -1.4364546    -1.1900982
C           4.1941103     0.3155046    -1.3298790
H           4.4731626     1.3554288    -1.1880548
H           3.8845504     0.0484538    -2.3353416
C           3.4305210    -0.3505184    -0.1929736
H           3.2372390     0.2308397     0.7017710
C           4.8669240    -0.7337165    -0.5094958
H           5.0110893    -1.7099296    -0.9619257
H           5.6259864    -0.4359491     0.2077383
15
167_C5H8O2_3-0-1-10 (180,) energy =    -345.7759253
O           1.2370672    -1.0834688     0.1709118
C           2.2975233    -1.1775527    -0.6642238
O           2.3188049    -1.8988117    -1.6425270
C           0.1115291    -1.9059058    -0.1749832
H           0.3932513    -2.9623022    -0.1793989
H          -0.6389652    -1.7123515     0.5922050
H          -0.2715836    -1.6384037    -1.1634729
C           4.2679246     0.3293126    -1.3175619
H           4.6188863     1.3427524    -1.1469828
H           3.9823038     0.1008627    -2.3396025
C           3.4091505    -0.2939857    -0.2273467
H           3.2237616     0.2828592     0.6720538
C           4.8259751    -0.7807697    -0.4909461
H           4.9166723    -1.7574240    -0.9559502
H           5.5720992    -0.5527014     0.2644418
