15
167_C5H8O2_0-1-10-12 (-165,) energy =    -345.7709382
O           1.2400938    -0.9571536    -0.0057732
C           2.4332519    -1.4636139    -0.3981873
O           2.5451377    -2.5001298    -1.0200243
C           0.0969495    -1.7643513    -0.3274653
H           0.1788061    -2.7531236     0.1322336
H          -0.7633159    -1.2264180     0.0724922
H           0.0043766    -1.8856670    -1.4102748
C           4.0154592     0.3798441    -1.1886826
H           4.2603128     1.4067765    -0.9336865
H           3.5394097     0.2572753    -2.1573790
C           3.5439449    -0.5269161    -0.0511816
H           3.4732011    -0.0664610     0.9295757
C           4.8917158    -0.7272812    -0.6904856
H           4.9972726    -1.6115855    -1.3111905
H           5.7683832    -0.4734564    -0.1015775
15
167_C5H8O2_0-1-10-12 (-150,) energy =    -345.7683310
O           1.2566823    -0.9086745    -0.1412444
C           2.4541859    -1.5112619    -0.3330852
O           2.5684809    -2.6468219    -0.7437341
C           0.1084297    -1.7324470    -0.3972287
H           0.1162908    -2.6185292     0.2435493
H          -0.7565158    -1.1065956    -0.1745839
H           0.0910116    -2.0537122    -1.4423128
C           3.9593110     0.4211437    -1.1309584
H           4.2227960     1.4302099    -0.8273721
H           3.4194908     0.3650820    -2.0721411
C           3.5768857    -0.5629434    -0.0351000
H           3.5803859    -0.1751025     0.9804554
C           4.8783382    -0.7122944    -0.7717370
H           4.9517419    -1.5505853    -1.4579055
H           5.7945339    -0.4885097    -0.2328055
15
167_C5H8O2_0-1-10-12 (-135,) energy =    -345.7664917
O           1.2856615    -0.8942281    -0.2843257
C           2.4724058    -1.5451055    -0.2560941
O           2.5760622    -2.7432046    -0.4094756
C           0.1324273    -1.7318466    -0.4647670
H           0.0600727    -2.4686840     0.3399335
H          -0.7247586    -1.0579061    -0.4459816
H           0.1858048    -2.2591441    -1.4211854
C           3.9214136     0.4647472    -1.0616493
H           4.2273640     1.4467708    -0.7122128
H           3.3127471     0.4836064    -1.9612317
C           3.6081990    -0.5879712    -0.0219996
H           3.7129294    -0.2935805     1.0205677
C           4.8536737    -0.7030645    -0.8565920
H           4.8714492    -1.4856480    -1.6094813
H           5.8099397    -0.5274929    -0.3722079
15
167_C5H8O2_0-1-10-12 (-120,) energy =    -345.7659404
O           1.3181718    -0.9019575    -0.4091911
C           2.4779922    -1.5564473    -0.1670401
O           2.5514129    -2.7622765    -0.0660510
C           0.1587296    -1.7412375    -0.5364633
H          -0.0053130    -2.3125725     0.3812131
H          -0.6749505    -1.0628883    -0.7209927
H           0.2781208    -2.4396873    -1.3692506
C           3.8935006     0.5025188    -0.9899956
H           4.2583120     1.4506164    -0.6049279
H           3.2147072     0.5965098    -1.8324416
C           3.6321148    -0.6057096    -0.0052247
H           3.8570194    -0.4101504     1.0419879
C           4.8079848    -0.6993088    -0.9443687
H           4.7477163    -1.4214662    -1.7536652
H           5.8029459    -0.5841701    -0.5243030
15
167_C5H8O2_0-1-10-12 (-105,) energy =    -345.7666584
O           1.3556745    -0.9169656    -0.5113629
C           2.4738887    -1.5407288    -0.0717724
O           2.4998725    -2.7097581     0.2490166
C           0.1904298    -1.7520610    -0.6079590
H          -0.0683268    -2.1636512     0.3712612
H          -0.6055197    -1.1031097    -0.9747798
H           0.3640616    -2.5786608    -1.3024208
C           3.8728152     0.5374914    -0.9213054
H           4.3067867     1.4473129    -0.5160658
H           3.1280155     0.7026553    -1.6934809
C           3.6499977    -0.6121771     0.0202893
H           3.9929309    -0.5045500     1.0472775
C           4.7409913    -0.6934869    -1.0265090
H           4.5845638    -1.3586821    -1.8711073
H           5.7702367    -0.6431685    -0.6838198
15
167_C5H8O2_0-1-10-12 (-90,) energy =    -345.7683340
O           1.4202075    -0.9512705    -0.5971108
C           2.4856557    -1.5163325     0.0193505
O           2.4548225    -2.6198152     0.5218915
C           0.2494815    -1.7802511    -0.6717328
H          -0.1028195    -2.0357900     0.3311254
H          -0.4966334    -1.1868628    -1.2013780
H           0.4635644    -2.7042571    -1.2158645
C           3.8682916     0.5690838    -0.8566421
H           4.3697001     1.4398318    -0.4435458
H           3.0644705     0.7978710    -1.5485629
C           3.6819881    -0.6172238     0.0479959
H           4.1277109    -0.5832082     1.0387201
C           4.6750030    -0.6797305    -1.1016106
H           4.4170843    -1.2915880    -1.9614888
H           5.7304264    -0.6884387    -0.8465748
15
167_C5H8O2_0-1-10-12 (-75,) energy =    -345.7704892
O           1.4818796    -0.9954130    -0.6791815
C           2.4790167    -1.4878457     0.0960349
O           2.3734996    -2.5051325     0.7486123
C           0.2960016    -1.8033676    -0.7332296
H          -0.1413506    -1.9078712     0.2631921
H          -0.3880010    -1.2761910    -1.3992854
H           0.5230545    -2.7988587    -1.1246172
C           3.8641754     0.5887680    -0.7927231
H           4.4360782     1.4133727    -0.3766058
H           3.0152180     0.8848201    -1.3993409
C           3.7022194    -0.6336769     0.0719804
H           4.2285182    -0.6676717     1.0211994
C           4.5915568    -0.6724676    -1.1658660
H           4.2313917    -1.2297961    -2.0258046
H           5.6631865    -0.7367249    -1.0034391
15
167_C5H8O2_0-1-10-12 (-60,) energy =    -345.7724736
O           1.5472607    -1.0641185    -0.7596213
C           2.4690580    -1.4651597     0.1520274
O           2.2794171    -2.3745370     0.9325948
C           0.3344736    -1.8319886    -0.7791658
H          -0.1727245    -1.7719380     0.1874016
H          -0.2806949    -1.3890313    -1.5632666
H           0.5445780    -2.8816018    -1.0024117
C           3.8611547     0.5985114    -0.7308756
H           4.4857649     1.3820890    -0.3114085
H           2.9791237     0.9486652    -1.2557805
C           3.7229088    -0.6658861     0.0843639
H           4.3046226    -0.7567547     0.9959054
C           4.5186492    -0.6573791    -1.2181067
H           4.0771477    -1.1614570    -2.0724204
H           5.5967309    -0.7582574    -1.1370563
15
167_C5H8O2_0-1-10-12 (-45,) energy =    -345.7736990
O           1.6131065    -1.1518756    -0.8437151
C           2.4599417    -1.4432702     0.1772475
O           2.1835661    -2.2206900     1.0669659
C           0.3607566    -1.8524995    -0.8166964
H          -0.1929648    -1.6151036     0.0956140
H          -0.1856641    -1.5107476    -1.6965433
H           0.5218749    -2.9330794    -0.8602259
C           3.8644294     0.6068407    -0.6759570
H           4.5230069     1.3550162    -0.2442223
H           2.9597181     0.9985177    -1.1282629
C           3.7474655    -0.7073097     0.0731807
H           4.3633311    -0.8466844     0.9551396
C           4.4686798    -0.6267025    -1.2675401
H           3.9721605    -1.0765146    -2.1212639
H           5.5479811    -0.7458344    -1.2500786
15
167_C5H8O2_0-1-10-12 (-30,) energy =    -345.7738843
O           1.8949430    -1.7063979    -0.4854965
C           1.9178404    -0.3558041    -0.6284845
O           0.9136327     0.3154445    -0.7447647
C           0.5877567    -2.2988443    -0.4934936
H           0.0753865    -2.0899887    -1.4365064
H           0.7507754    -3.3707240    -0.3750958
H          -0.0165965    -1.9089594     0.3299674
C           4.4189144    -0.5560250    -1.3434993
H           5.1331271     0.0480355    -1.8954218
H           4.1577834    -1.4991381    -1.8121779
C           3.3000197     0.1907485    -0.6269712
H           3.3085602     1.2738480    -0.6812396
C           4.4163374    -0.4909416     0.1484236
H           4.1554702    -1.3894236     0.6974168
H           5.1300429     0.1596958     0.6455571
15
167_C5H8O2_0-1-10-12 (-15,) energy =    -345.7730363
O           1.8723759    -1.6813457    -0.3466707
C           1.9191947    -0.3591011    -0.6513207
O           0.9379439     0.2862244    -0.9568571
C           0.5754819    -2.2866974    -0.4561046
H           0.1921876    -2.1980351    -1.4763142
H           0.7175697    -3.3347242    -0.1897535
H          -0.1301973    -1.8084538     0.2283180
C           4.4036655    -0.4937094    -1.3680636
H           5.1044090     0.1501488    -1.8913314
H           4.1349115    -1.4011750    -1.8996929
C           3.2967604     0.1957312    -0.5686066
H           3.3022027     1.2802709    -0.5651994
C           4.4284653    -0.5374493     0.1238681
H           4.1829554    -1.4739795     0.6124622
H           5.1536263     0.0769911     0.6500009
15
167_C5H8O2_0-1-10-12 (0,) energy =    -345.7712578
O           1.8364748    -1.6532318    -0.2232881
C           1.9343664    -0.3823981    -0.6874302
O           0.9999964     0.2205380    -1.1731458
C           0.5546205    -2.2726276    -0.4091236
H           0.2946166    -2.3139419    -1.4704549
H           0.6527329    -3.2784109     0.0010343
H          -0.2208225    -1.7145105     0.1221162
C           4.4116073    -0.4191238    -1.3917860
H           5.0981536     0.2745125    -1.8680080
H           4.1546060    -1.2850710    -1.9947631
C           3.3027249     0.1848785    -0.5247742
H           3.2940960     1.2672017    -0.4503042
C           4.4488613    -0.5838405     0.0925116
H           4.2233110    -1.5607825     0.5057043
H           5.1731825    -0.0060510     0.6599760
15
167_C5H8O2_0-1-10-12 (15,) energy =    -345.7689985
O           1.7784913    -1.6249181    -0.1171670
C           1.9492709    -0.4322969    -0.7374086
O           1.0815033     0.1062318    -1.3921984
C           0.5077273    -2.2538648    -0.3460382
H           0.3529956    -2.4376932    -1.4128126
H           0.5429503    -3.1947363     0.2043318
H          -0.3039011    -1.6217108     0.0236794
C           4.4334507    -0.3209008    -1.4110844
H           5.1041961     0.4361389    -1.8063688
H           4.2134630    -1.1289734    -2.1030682
C           3.3031630     0.1556903    -0.4997026
H           3.2616541     1.2262384    -0.3232982
C           4.4631242    -0.6336668     0.0533299
H           4.2655823    -1.6539662     0.3641882
H           5.1694497    -0.0992202     0.6827192
15
167_C5H8O2_0-1-10-12 (30,) energy =    -345.7670408
O           1.7281647    -1.5920246    -0.0232558
C           1.9857713    -0.5105392    -0.7963046
O           1.2006540    -0.0753716    -1.6117159
C           0.4640797    -2.2290027    -0.2692016
H           0.3981460    -2.5701682    -1.3059801
H           0.4241362    -3.0755963     0.4170651
H          -0.3583537    -1.5356616    -0.0739646
C           4.4788232    -0.2135991    -1.4241074
H           5.1279234     0.6064544    -1.7168004
H           4.3104304    -0.9483466    -2.2065342
C           3.3189609     0.1088598    -0.4963577
H           3.2284351     1.1499558    -0.1966948
C           4.4962687    -0.6857922     0.0032867
H           4.3377395    -1.7421083     0.1953509
H           5.1710440    -0.2001796     0.7028868
15
167_C5H8O2_0-1-10-12 (45,) energy =    -345.7660096
O           1.6496717    -1.5524788     0.0408930
C           1.9965879    -0.6048663    -0.8613509
O           1.3088520    -0.3139399    -1.8164145
C           0.3964762    -2.2076608    -0.2141439
H           0.4169368    -2.7157948    -1.1821395
H           0.2726900    -2.9280945     0.5950985
H          -0.4227091    -1.4835414    -0.2141368
C           4.4799376    -0.0979041    -1.4372293
H           5.0966376     0.7766683    -1.6228416
H           4.3584386    -0.7470854    -2.2997952
C           3.2991064     0.0582981    -0.5084394
H           3.1517818     1.0448772    -0.0729067
C           4.5035773    -0.7296309    -0.0669030
H           4.3989629    -1.8083438     0.0002729
H           5.1435265    -0.2964924     0.6967750
15
167_C5H8O2_0-1-10-12 (60,) energy =    -345.7662073
O           1.5843563    -1.4824097     0.1024844
C           2.0344979    -0.6880843    -0.8969692
O           1.4647234    -0.5701169    -1.9603905
C           0.3480320    -2.1631813    -0.1668141
H           0.4517836    -2.8212744    -1.0338043
H           0.1314221    -2.7429508     0.7310935
H          -0.4529337    -1.4452392    -0.3636438
C           4.4870336     0.0054814    -1.4289963
H           5.0725524     0.9160417    -1.5172308
H           4.3888572    -0.5536810    -2.3549685
C           3.3036271     0.0156940    -0.5027953
H           3.1151902     0.9281415     0.0608584
C           4.5374170    -0.7678092    -0.1301761
H           4.4811740    -1.8514917    -0.1794159
H           5.1549154    -0.3913248     0.6803047
15
167_C5H8O2_0-1-10-12 (75,) energy =    -345.7675774
O           1.5037886    -1.3855645     0.1394034
C           2.0678757    -0.7556514    -0.9180091
O           1.6264792    -0.8224754    -2.0454058
C           0.2949305    -2.1053320    -0.1502673
H           0.4837954    -2.8955101    -0.8820637
H          -0.0266134    -2.5322706     0.8003491
H          -0.4703879    -1.4328433    -0.5476402
C           4.4737749     0.0936067    -1.4296521
H           5.0313604     1.0256208    -1.4394027
H           4.3708955    -0.3800905    -2.4014133
C           3.3052984    -0.0177031    -0.4974413
H           3.0991632     0.8127201     0.1751955
C           4.5710234    -0.7976701    -0.2122718
H           4.5508369    -1.8729657    -0.3659576
H           5.1814577    -0.4780821     0.6272424
15
167_C5H8O2_0-1-10-12 (90,) energy =    -345.7698016
O           1.4268794    -1.2955274     0.2000948
C           2.1068564    -0.8288082    -0.8739285
O           1.7963557    -1.0794320    -2.0197870
C           0.2591151    -2.0734509    -0.1054841
H           0.5306320    -2.9679086    -0.6728760
H          -0.1708445    -2.3473680     0.8586105
H          -0.4544924    -1.4875964    -0.6913948
C           4.4473349     0.1737200    -1.3866039
H           4.9704017     1.1239199    -1.3318718
H           4.3253181    -0.2235880    -2.3895844
C           3.3086183    -0.0514303    -0.4380109
H           3.0959615     0.7013993     0.3169403
C           4.6129494    -0.8100046    -0.2549689
H           4.6226832    -1.8682008    -0.5006020
H           5.2315900    -0.5400944     0.5957433
15
167_C5H8O2_0-1-10-12 (105,) energy =    -345.7722779
O           1.3507207    -1.2135857     0.2112620
C           2.1479288    -0.9073768    -0.8395255
O           1.9538446    -1.3156470    -1.9665108
C           0.2131757    -2.0319865    -0.1021372
H           0.5332413    -2.9985637    -0.5008948
H          -0.3209190    -2.1639637     0.8395006
H          -0.4261271    -1.5402143    -0.8403966
C           4.4121278     0.2294744    -1.3739657
H           4.9006490     1.1941166    -1.2732150
H           4.2558674    -0.1055703    -2.3945731
C           3.3199073    -0.0985679    -0.3959261
H           3.1111795     0.5918138     0.4160323
C           4.6613201    -0.8192850    -0.3255762
H           4.6895537    -1.8569229    -0.6452020
H           5.3045840    -0.5853007     0.5173947
15
167_C5H8O2_0-1-10-12 (120,) energy =    -345.7743628
O           1.2968795    -1.1607307     0.2056910
C           2.2029468    -1.0017206    -0.7874638
O           2.1057248    -1.5365272    -1.8741129
C           0.1739410    -1.9948648    -0.1191254
H           0.5053166    -3.0076231    -0.3643203
H          -0.4529924    -2.0022446     0.7731869
H          -0.3761921    -1.5875019    -0.9716918
C           4.3725272     0.2751455    -1.3536612
H           4.8144554     1.2580781    -1.2201152
H           4.1758612    -0.0117350    -2.3818597
C           3.3463925    -0.1619823    -0.3384112
H           3.1404653     0.4783612     0.5131413
C           4.7258218    -0.8128488    -0.3857302
H           4.7772653    -1.8288908    -0.7652235
H           5.4015763    -0.5936316     0.4355069
15
167_C5H8O2_0-1-10-12 (135,) energy =    -345.7756146
O           1.2559867    -1.1141614     0.1889054
C           2.2564421    -1.0989494    -0.7223168
O           2.2344397    -1.7427599    -1.7530550
C           0.1357491    -1.9478409    -0.1468747
H           0.4502198    -2.9891869    -0.2569756
H          -0.5649271    -1.8443579     0.6823572
H          -0.3243025    -1.6172236    -1.0820309
C           4.3191738     0.3103849    -1.3332946
H           4.7108300     1.3111179    -1.1770941
H           4.0760141     0.0586515    -2.3607975
C           3.3785259    -0.2323860    -0.2763028
H           3.1800858     0.3695810     0.6038612
C           4.7855069    -0.7950132    -0.4426224
H           4.8600921    -1.7894964    -0.8714934
H           5.4992970    -0.5744382     0.3455005
15
167_C5H8O2_0-1-10-12 (150,) energy =    -345.7758956
O           1.2308029    -1.0808908     0.1637558
C           2.3070620    -1.2017481    -0.6477572
O           2.3407260    -1.9423336    -1.6111356
C           0.1056133    -1.9018680    -0.1865126
H           0.3786714    -2.9603058    -0.1630757
H          -0.6580511    -1.6862601     0.5615603
H          -0.2560651    -1.6526531    -1.1877894
C           4.2485865     0.3356523    -1.3090442
H           4.5868658     1.3524308    -1.1327992
H           3.9525598     0.1138275    -2.3296012
C           3.4142505    -0.3121119    -0.2120217
H           3.2304259     0.2566068     0.6928190
C           4.8333065    -0.7740201    -0.5013249
H           4.9307724    -1.7451393    -0.9764198
H           5.5871700    -0.5422701     0.2452504
15
167_C5H8O2_0-1-10-12 (165,) energy =    -345.7751483
O           1.2211582    -1.0418050     0.1248360
C           2.3554544    -1.2983694    -0.5678393
O           2.4287486    -2.1347570    -1.4465934
C           0.0889618    -1.8485452    -0.2352547
H           0.3056987    -2.9089880    -0.0807163
H          -0.7214644    -1.5237916     0.4182444
H          -0.1770382    -1.6918395    -1.2841946
C           4.1721819     0.3507480    -1.2808979
H           4.4643925     1.3782709    -1.0854182
H           3.8200945     0.1547188    -2.2890133
C           3.4565778    -0.3903968    -0.1516282
H           3.2966139     0.1491617     0.7754384
C           4.8687554    -0.7544598    -0.5607932
H           4.9819920    -1.7011965    -1.0794693
H           5.6632146    -0.5072396     0.1372128
15
167_C5H8O2_0-1-10-12 (180,) energy =    -345.7734138
O           1.2262352    -0.9993619     0.0759937
C           2.3976421    -1.3874062    -0.4813340
O           2.4938580    -2.3211192    -1.2524918
C           0.0866272    -1.7987014    -0.2766596
H           0.2378589    -2.8401671     0.0199814
H          -0.7544259    -1.3645184     0.2650761
H          -0.0905659    -1.7612483    -1.3550318
C           4.0910416     0.3604069    -1.2427020
H           4.3504245     1.3918885    -1.0229795
H           3.6771437     0.1949744    -2.2329457
C           3.5019501    -0.4656667    -0.0958021
H           3.3801521     0.0408595     0.8558544
C           4.8882852    -0.7413275    -0.6255053
H           5.0040751    -1.6599995    -1.1918866
H           5.7249501    -0.4841224     0.0174563
