16
264_C7H8O_0-4-11-9 (-165,) energy =    -346.7708044
C           1.5850260    -1.2669213    -0.4956028
H           1.9753906    -1.5206824    -1.4905721
H           0.4969481    -1.3568534    -0.5089384
H           2.0015482    -1.9656631     0.2418063
O           1.8612648     0.0799833    -0.1471979
C           5.7486584     1.3275388     0.6915374
H           6.7517974     1.6756294     0.9199244
C           4.6351182     2.1023639     1.0345514
H           4.7694901     3.0575898     1.5354970
C           3.3491799     1.6573737     0.7484191
H           2.4737980     2.2426307     1.0126383
C           3.1606494     0.4279594     0.1002649
C           4.2681838    -0.3567895    -0.2413308
H           4.1413776    -1.3123788    -0.7379329
C           5.5550340     0.1026663     0.0569660
H           6.4100741    -0.5115484    -0.2138440
16
264_C7H8O_0-4-11-9 (-150,) energy =    -346.7694643
C           1.5724284    -1.2613108    -0.4428691
H           1.9634533    -1.6966420    -1.3725138
H           0.4820932    -1.3240945    -0.4591393
H           1.9618099    -1.8307803     0.4107519
O           1.8852758     0.1194880    -0.3274101
C           5.7399764     1.3076287     0.7265603
H           6.7355741     1.6380027     1.0083337
C           4.6187637     2.0698188     1.0698411
H           4.7390748     2.9957187     1.6263398
C           3.3409339     1.6449426     0.7180455
H           2.4583351     2.2182549     0.9843413
C           3.1733547     0.4556157    -0.0034911
C           4.2891241    -0.3180766    -0.3430407
H           4.1710315    -1.2451300    -0.8941993
C           5.5658719     0.1163918     0.0237424
H           6.4284026    -0.4873427    -0.2468359
16
264_C7H8O_0-4-11-9 (-135,) energy =    -346.7678507
C           1.5511551    -1.2471698    -0.3746985
H           2.0327648    -1.8752858    -1.1359010
H           0.4700611    -1.2817158    -0.5283197
H           1.7937710    -1.6420222     0.6201980
O           1.9228929     0.1213152    -0.4894762
C           5.7313187     1.2894807     0.7489950
H           6.7162881     1.6125458     1.0736652
C           4.5957412     2.0206705     1.1074261
H           4.6933529     2.9146982     1.7178510
C           3.3300580     1.6033294     0.6999722
H           2.4350046     2.1525642     0.9752994
C           3.1947778     0.4574364    -0.0914891
C           4.3267763    -0.2830525    -0.4503194
H           4.2270542    -1.1733674    -1.0632635
C           5.5889235     0.1387034    -0.0272964
H           6.4654467    -0.4375996    -0.3122625
16
264_C7H8O_0-4-11-9 (-120,) energy =    -346.7669232
C           1.5216638    -1.2133534    -0.2901725
H           2.1607913    -1.9936661    -0.7236946
H           0.5158711    -1.3087054    -0.7058710
H           1.4818613    -1.3523171     0.7987102
O           1.9686738     0.0966132    -0.6237810
C           5.7289499     1.2676356     0.7559255
H           6.7042335     1.5892332     1.1102806
C           4.5772649     1.9533128     1.1475605
H           4.6524876     2.8110478     1.8109013
C           3.3230339     1.5387490     0.6982317
H           2.4155486     2.0568860     0.9928800
C           3.2206693     0.4408565    -0.1601248
C           4.3707449    -0.2479375    -0.5608287
H           4.2876517    -1.0899258    -1.2418481
C           5.6196669     0.1679014    -0.0982018
H           6.5119986    -0.3661486    -0.4144818
16
264_C7H8O_0-4-11-9 (-105,) energy =    -346.7665950
C           1.4926758    -1.1690523    -0.2294041
H           2.1615186    -2.0219156    -0.4084003
H           0.5436184    -1.3430879    -0.7420758
H           1.3132771    -1.0823537     0.8512838
O           2.0245517     0.0400383    -0.7624029
C           5.7126268     1.2495932     0.7694046
H           6.6719884     1.5774247     1.1599099
C           4.5365561     1.8835462     1.1753122
H           4.5779390     2.7067639     1.8838028
C           3.3020872     1.4638380     0.6766683
H           2.3768372     1.9467963     0.9765503
C           3.2481074     0.4116638    -0.2402114
C           4.4221184    -0.2248848    -0.6545920
H           4.3635874    -1.0299579    -1.3816920
C           5.6513400     0.1964069    -0.1466321
H           6.5643091    -0.2945523    -0.4735279
16
264_C7H8O_0-4-11-9 (-90,) energy =    -346.7665005
C           1.4631568    -1.1090048    -0.1766919
H           2.0898368    -2.0114893    -0.1530145
H           0.5420472    -1.3224298    -0.7243567
H           1.2150726    -0.8254162     0.8556226
O           2.1094152    -0.0446609    -0.8686089
C           5.7178558     1.2482656     0.7796884
H           6.6586707     1.5955516     1.1976054
C           4.5125374     1.8142848     1.2014692
H           4.5136831     2.6048311     1.9473911
C           3.3020772     1.3735917     0.6645064
H           2.3566358     1.8118800     0.9709535
C           3.3014179     0.3630624    -0.3005651
C           4.5035142    -0.2060483    -0.7286295
H           4.4791285    -0.9800370    -1.4902905
C           5.7099938     0.2403782    -0.1872548
H           6.6456543    -0.1977282    -0.5248382
16
264_C7H8O_0-4-11-9 (-75,) energy =    -346.7666348
C           1.4112681    -1.0492823    -0.1331908
H           1.9681785    -1.9656975     0.1066594
H           0.5293353    -1.3050547    -0.7252329
H           1.0908014    -0.5757642     0.8047009
O           2.1922920    -0.1662855    -0.9327782
C           5.7223405     1.2608517     0.7745378
H           6.6450415     1.6407326     1.2042402
C           4.4897575     1.7461677     1.2185246
H           4.4518668     2.5088772     1.9919966
C           3.3023248     1.2657950     0.6656715
H           2.3397914     1.6519047     0.9891395
C           3.3503752     0.2886166    -0.3336019
C           4.5793286    -0.1994273    -0.7833296
H           4.5899220    -0.9494178    -1.5685423
C           5.7629831     0.2917139    -0.2298519
H           6.7186531    -0.0854718    -0.5845055
16
264_C7H8O_0-4-11-9 (-60,) energy =    -346.7670279
C           1.3505953    -0.9908063    -0.1098458
H           1.8335821    -1.8362820     0.3982067
H           0.5580262    -1.3635979    -0.7627791
H           0.9054097    -0.3303326     0.6457003
O           2.2707512    -0.3050484    -0.9524885
C           5.7302779     1.2812501     0.7582016
H           6.6377700     1.6994399     1.1844812
C           4.4804920     1.6788424     1.2382470
H           4.4127509     2.4137806     2.0362497
C           3.3105353     1.1498733     0.6919499
H           2.3391975     1.4774993     1.0505123
C           3.3933903     0.2043057    -0.3362122
C           4.6410872    -0.1949278    -0.8230819
H           4.6777283    -0.9220522    -1.6285025
C           5.8048512     0.3474734    -0.2774886
H           6.7726722     0.0349353    -0.6609242
16
264_C7H8O_0-4-11-9 (-45,) energy =    -346.7680729
C           1.3043165    -0.9104142    -0.1001865
H           1.7000975    -1.5445632     0.7033293
H           0.6478242    -1.5017146    -0.7427436
H           0.7173843    -0.0951960     0.3437211
O           2.3482514    -0.4282378    -0.9379084
C           5.7498390     1.2987766     0.7469161
H           6.6455678     1.7504201     1.1635707
C           4.4951718     1.6111636     1.2714557
H           4.4100933     2.3142994     2.0960654
C           3.3377890     1.0385829     0.7398748
H           2.3652069     1.3004061     1.1445988
C           3.4408381     0.1284504    -0.3184383
C           4.6961095    -0.1837897    -0.8523061
H           4.7472753    -0.8838194    -1.6805032
C           5.8432218     0.4021147    -0.3208565
H           6.8146547     0.1521922    -0.7395508
16
264_C7H8O_0-4-11-9 (-30,) energy =    -346.7696330
C           1.2651199    -0.8520781    -0.0970551
H           1.5496997    -1.3267019     0.8507238
H           0.6466779    -1.5386802    -0.6793208
H           0.6805323     0.0530915     0.1165459
O           2.4046304    -0.5726435    -0.8980306
C           5.7459963     1.3166270     0.7273033
H           6.6289255     1.8063871     1.1276896
C           4.4926282     1.5541480     1.2895252
H           4.3933605     2.2365147     2.1298839
C           3.3500175     0.9308233     0.7806127
H           2.3807672     1.1349366     1.2232873
C           3.4693206     0.0454954    -0.2971600
C           4.7255461    -0.1918643    -0.8704157
H           4.7905647    -0.8750193    -1.7116430
C           5.8539082     0.4421415    -0.3586055
H           6.8245910     0.2480908    -0.8075650
16
264_C7H8O_0-4-11-9 (-15,) energy =    -346.7708575
C           1.2422612    -0.8122025    -0.1020584
H           1.4054938    -1.1971094     0.9131920
H           0.6117808    -1.5086796    -0.6584368
H           0.7319881     0.1586129    -0.0398241
O           2.4589580    -0.7230597    -0.8256309
C           5.7372046     1.3456940     0.7052088
H           6.6061118     1.8774306     1.0818665
C           4.4907774     1.5194591     1.3024150
H           4.3815223     2.1926923     2.1488916
C           3.3646355     0.8406285     0.8259154
H           2.4032987     0.9959113     1.3029279
C           3.4951534    -0.0317433    -0.2609372
C           4.7469179    -0.2072535    -0.8687561
H           4.8210349    -0.8849702    -1.7136508
C           5.8563499     0.4781072    -0.3861853
H           6.8220165     0.3322498    -0.8633292
16
264_C7H8O_0-4-11-9 (0,) energy =    -346.7713008
C           1.2291845    -0.7864566    -0.1354077
H           1.2577134    -1.1047333     0.9154056
H           0.5881283    -1.4663958    -0.6997880
H           0.8164587     0.2298269    -0.1913164
O           2.5087000    -0.8653043    -0.7405907
C           5.7216947     1.3781441     0.6779353
H           6.5754374     1.9514017     1.0272840
C           4.4868425     1.4949252     1.3111820
H           4.3714723     2.1627842     2.1610866
C           3.3797877     0.7618915     0.8705639
H           2.4291920     0.8701402     1.3803789
C           3.5170132    -0.1011464    -0.2229452
C           4.7587001    -0.2227887    -0.8647180
H           4.8400835    -0.8985328    -1.7105343
C           5.8489127     0.5126673    -0.4144802
H           6.8058046     0.4100829    -0.9197025
16
264_C7H8O_0-4-11-9 (15,) energy =    -346.7708575
C           1.2209630    -0.7479375    -0.1554243
H           1.1114344    -0.9864089     0.9112852
H           0.5811286    -1.4161917    -0.7352441
H           0.9119814     0.2921171    -0.3237945
O           2.5433364    -0.9776896    -0.6141148
C           5.7150965     1.4124184     0.6498054
H           6.5585785     2.0209039     0.9626934
C           4.5020880     1.4853221     1.3307794
H           4.3951788     2.1515254     2.1830968
C           3.4091428     0.7063086     0.9374980
H           2.4763922     0.7753114     1.4861668
C           3.5349296    -0.1517814    -0.1612168
C           4.7552248    -0.2323259    -0.8479147
H           4.8291681    -0.9095043    -1.6932562
C           5.8340416     0.5454141    -0.4420721
H           6.7741005     0.4768300    -0.9834016
16
264_C7H8O_0-4-11-9 (30,) energy =    -346.7696330
C           1.2248130    -0.7304658    -0.1980584
H           0.9795588    -0.8492925     0.8660986
H           0.6071042    -1.4192752    -0.7784924
H           1.0099724     0.3019806    -0.5020917
O           2.5731732    -1.0812587    -0.4755484
C           5.7053486     1.4392766     0.6254347
H           6.5384142     2.0795050     0.9008388
C           4.5204289     1.4702493     1.3592255
H           4.4275065     2.1334631     2.2154930
C           3.4433822     0.6490788     1.0146498
H           2.5321746     0.6780477     1.6028087
C           3.5517713    -0.2033213    -0.0904744
C           4.7426332    -0.2434422    -0.8275642
H           4.8054599    -0.9199823    -1.6742862
C           5.8102191     0.5739669    -0.4680953
H           6.7283137     0.5386057    -1.0488683
16
264_C7H8O_0-4-11-9 (45,) energy =    -346.7680729
C           1.2387073    -0.7124321    -0.2646201
H           0.8878256    -0.6095311     0.7709558
H           0.6411289    -1.4815089    -0.7595130
H           1.1068773     0.2455528    -0.7835720
O           2.5890559    -1.1548960    -0.3343088
C           5.6961525     1.4607850     0.6123592
H           6.5214444     2.1249840     0.8524555
C           4.5491883     1.4481638     1.4068601
H           4.4811943     2.0997571     2.2742829
C           3.4847918     0.5949819     1.1083573
H           2.6035166     0.5812671     1.7419463
C           3.5638259    -0.2426809    -0.0101513
C           4.7142276    -0.2384651    -0.8068778
H           4.7546922    -0.9062029    -1.6618977
C           5.7745526     0.6093315    -0.4929648
H           6.6634729     0.6083993    -1.1184790
16
264_C7H8O_0-4-11-9 (60,) energy =    -346.7670279
C           1.2526889    -0.6953621    -0.3552370
H           0.8739446    -0.2353862     0.5668477
H           0.6192807    -1.5484401    -0.6092312
H           1.2099780     0.0455214    -1.1648602
O           2.5708391    -1.2106007    -0.2002959
C           5.6690699     1.4659485     0.6047981
H           6.4894241     2.1470868     0.8126640
C           4.5713796     1.4045748     1.4660746
H           4.5384538     2.0344537     2.3513425
C           3.5165079     0.5283256     1.2082390
H           2.6746799     0.4651426     1.8914195
C           3.5555396    -0.2850008     0.0702336
C           4.6528786    -0.2305134    -0.7935112
H           4.6636472    -0.8795610    -1.6637847
C           5.7074753     0.6413114    -0.5215468
H           6.5593807     0.6785619    -1.1955275
16
264_C7H8O_0-4-11-9 (75,) energy =    -346.7666348
C           1.2884632    -0.6915105    -0.4323185
H           0.8916971     0.0001098     0.3232435
H           0.6025385    -1.5349161    -0.5415425
H           1.3680784    -0.1593689    -1.3904192
O           2.5437366    -1.2397459    -0.0416493
C           5.6462197     1.4783981     0.5900248
H           6.4647554     2.1728728     0.7574829
C           4.6068579     1.3817623     1.5185993
H           4.6177614     1.9984613     2.4135746
C           3.5565774     0.4872034     1.3108111
H           2.7546130     0.3894586     2.0370998
C           3.5447839    -0.3106148     0.1623186
C           4.5816613    -0.2203216    -0.7691245
H           4.5552317    -0.8591682    -1.6468186
C           5.6323212     0.6722108    -0.5499774
H           6.4409929     0.7376701    -1.2732383
16
264_C7H8O_0-4-11-9 (90,) energy =    -346.7665005
C           1.3284342    -0.7024605    -0.5143636
H           0.8992915     0.1275049     0.0641127
H           0.6086578    -1.5234368    -0.5573726
H           1.5390501    -0.3494249    -1.5335659
O           2.4994230    -1.2215584     0.1089737
C           5.6394452     1.4848777     0.5831658
H           6.4655040     2.1784570     0.7134344
C           4.6606415     1.3673564     1.5727117
H           4.7246086     1.9683463     2.4760849
C           3.5998604     0.4749867     1.4109264
H           2.8374579     0.3609200     2.1761699
C           3.5223515    -0.3036308     0.2532221
C           4.4991081    -0.1927545    -0.7396601
H           4.4256578    -0.8186671    -1.6243180
C           5.5571543     0.7015844    -0.5703321
H           6.3205566     0.7832866    -1.3396836
16
264_C7H8O_0-4-11-9 (105,) energy =    -346.7665951
C           1.3484371    -0.7335648    -0.5911985
H           0.8925145     0.1884305    -0.2043606
H           0.6077662    -1.5367652    -0.5808811
H           1.6762804    -0.5579079    -1.6248491
O           2.4236882    -1.1642170     0.2378123
C           5.6385392     1.4733856     0.5836096
H           6.4821169     2.1506453     0.6838104
C           4.7153024     1.3444059     1.6232205
H           4.8380912     1.9220074     2.5357221
C           3.6294640     0.4762137     1.4970788
H           2.9033137     0.3585833     2.2959097
C           3.4750055    -0.2729225     0.3284865
C           4.3980774    -0.1522378    -0.7148579
H           4.2726186    -0.7553498    -1.6097089
C           5.4770457     0.7224426    -0.5834706
H           6.1977793     0.8115395    -1.3921834
16
264_C7H8O_0-4-11-9 (120,) energy =    -346.7669232
C           1.3761003    -0.7740635    -0.6550536
H           0.9569037     0.2318239    -0.5171219
H           0.5850948    -1.5175556    -0.5323910
H           1.7824867    -0.8520447    -1.6719519
O           2.3530077    -1.0631220     0.3395429
C           5.6635899     1.4648838     0.5921107
H           6.5298894     2.1153478     0.6733035
C           4.7851614     1.3259759     1.6686688
H           4.9641611     1.8705425     2.5921379
C           3.6687722     0.4954650     1.5648343
H           2.9727105     0.3756022     2.3894215
C           3.4371562    -0.2123866     0.3824966
C           4.3157981    -0.0820950    -0.6985617
H           4.1410939    -0.6476298    -1.6092125
C           5.4239281     0.7585936    -0.5888244
H           6.1074414     0.8546791    -1.4285120
16
264_C7H8O_0-4-11-9 (135,) energy =    -346.7678507
C           1.4153921    -0.8374621    -0.7150054
H           1.1786644     0.2141439    -0.9215839
H           0.5005011    -1.3735417    -0.4520404
H           1.8397627    -1.2928469    -1.6196825
O           2.2808277    -0.9587580     0.4076807
C           5.6758358     1.4569281     0.6099341
H           6.5602593     2.0833961     0.6825941
C           4.8384643     1.2882396     1.7158274
H           5.0666720     1.7881698     2.6536031
C           3.6981877     0.4924728     1.6227009
H           3.0303985     0.3558937     2.4676793
C           3.3995370    -0.1604119     0.4217305
C           4.2304636     0.0076261    -0.6917458
H           4.0025396    -0.4958198    -1.6260360
C           5.3644986     0.8159694    -0.5898308
H           6.0089958     0.9398390    -1.4563778
16
264_C7H8O_0-4-11-9 (150,) energy =    -346.7694643
C           1.4497158    -0.8909785    -0.7504699
H           1.3207637     0.1036977    -1.1960849
H           0.4742943    -1.3005279    -0.4786992
H           1.9170708    -1.5566571    -1.4887818
O           2.1975547    -0.8228153     0.4553080
C           5.6969815     1.4373917     0.6188020
H           6.6065504     2.0273639     0.6849464
C           4.8882738     1.2565584     1.7453829
H           5.1646442     1.7115259     2.6930539
C           3.7175344     0.5085312     1.6620008
H           3.0723166     0.3655253     2.5232930
C           3.3531384    -0.0868732     0.4471321
C           4.1516889     0.0966790    -0.6875308
H           3.8752103    -0.3524134    -1.6357003
C           5.3204263     0.8570750    -0.5914660
H           5.9381334     0.9921242    -1.4756982
16
264_C7H8O_0-4-11-9 (165,) energy =    -346.7708044
C           1.4748406    -0.9343904    -0.7718039
H           1.3576510    -0.0226047    -1.3721509
H           0.4905090    -1.3373887    -0.5250997
H           2.0284667    -1.6808026    -1.3575598
O           2.1068009    -0.6609184     0.4682303
C           5.7226492     1.4060451     0.6263529
H           6.6616937     1.9475454     0.6940911
C           4.9254123     1.2263874     1.7621876
H           5.2419197     1.6319925     2.7196668
C           3.7200604     0.5382227     1.6780391
H           3.0862108     0.3946285     2.5476634
C           3.3000610     0.0072975     0.4496962
C           4.0879367     0.1871566    -0.6931307
H           3.7766099    -0.2116125    -1.6522464
C           5.2956952     0.8852762    -0.5930706
H           5.9030382     1.0185177    -1.4847390
16
264_C7H8O_0-4-11-9 (180,) energy =    -346.7713009
C           1.4998692    -0.9755647    -0.7749857
H           1.3667509    -0.1672991    -1.5066596
H           0.5263800    -1.4076945    -0.5354676
H           2.1426929    -1.7519591    -1.2112454
O           2.0227783    -0.4910324     0.4503036
C           5.7483887     1.3673567     0.6348613
H           6.7157687     1.8551812     0.7107985
C           4.9531384     1.1902920     1.7728467
H           5.3014058     1.5412268     2.7408363
C           3.7144355     0.5665180     1.6795764
H           3.0844917     0.4207602     2.5516932
C           3.2513849     0.1080741     0.4370136
C           4.0395074     0.2806801    -0.7068139
H           3.7003241    -0.0664661    -1.6762121
C           5.2837890     0.9104341    -0.5958946
H           5.8895262     1.0404892    -1.4891346
