23
144_C11H8N2O2_0-5-6-16 (-165,) energy =    -683.9422614
N          -0.0352845     0.1429382    -1.2166103
H           0.1726454     0.2287910    -2.2079303
C          -1.3877833     0.0436191    -0.8612411
C          -1.5907164    -0.0015935     0.5827639
H          -2.6186511    -0.0827467     0.9188824
C           1.0305723     0.2113822    -0.3550176
C           2.3381121     0.3502480    -1.0710502
C          -0.5435720     0.0637496     1.4551530
H          -0.7294223     0.0339967     2.5259998
C           6.1354651    -0.3167809     0.6962744
H           7.0876468    -0.5055552     1.1826009
C           4.9423603    -0.4466186     1.4114170
H           4.9561713    -0.7358039     2.4605405
C           0.8036333     0.1672460     0.9981959
H           1.6363563     0.1961886     1.6832175
N           3.7372306    -0.2348938     0.8778490
C           3.6747026     0.1228462    -0.4148284
C           4.8163058     0.2830052    -1.2133817
H           4.6980041     0.5732423    -2.2504800
C           6.0664270     0.0578807    -0.6447092
H           6.9696834     0.1718415    -1.2373921
O           2.3071050     0.6068654    -2.2730567
O          -2.2656809     0.0033534    -1.7165477
23
144_C11H8N2O2_0-5-6-16 (-150,) energy =    -683.9400678
N           0.4042483    -0.6035059     1.5956151
H           0.8541291    -1.0595804     2.3842635
C          -0.9694582    -0.3436894     1.7289656
C          -1.5626566     0.1953725     0.5111844
H          -2.6228516     0.4191836     0.5554419
C           1.1575036    -0.4174064     0.4649358
C           2.5815440    -0.8473653     0.6344306
C          -0.8251897     0.3918656    -0.6204425
H          -1.3023592     0.7868924    -1.5139497
C           5.8107330     0.9943171    -1.3968092
H           6.6097291     1.5033643    -1.9272420
C           4.4810955     1.3757782    -1.5947019
H           4.2344512     2.1825841    -2.2823028
C           0.5693774     0.0968104    -0.6622871
H           1.1614974     0.2833587    -1.5449301
N           3.4495015     0.8000963    -0.9728273
C           3.7134462    -0.1983303    -0.1148499
C           5.0122184    -0.6577030     0.1457931
H           5.1548112    -1.4687060     0.8502278
C           6.0778443    -0.0466593    -0.5083170
H           7.0974089    -0.3752142    -0.3275456
O           2.8340962    -1.6819962     1.4993901
O          -1.5534737    -0.5687808     2.7834449
23
144_C11H8N2O2_0-5-6-16 (-135,) energy =    -683.9365958
N           0.4663700    -0.5040743     1.5959754
H           0.9207670    -0.8895771     2.4182179
C          -0.8863614    -0.1511193     1.7614791
C          -1.5185200     0.2604656     0.5157554
H          -2.5621268     0.5473465     0.5823885
C           1.1567306    -0.5136727     0.4123056
C           2.5728403    -0.9895611     0.5410739
C          -0.8376489     0.2678070    -0.6678372
H          -1.3448688     0.5724973    -1.5800183
C           5.7782638     1.0875462    -1.2821240
H           6.5696276     1.6604238    -1.7559500
C           4.4424885     1.4633549    -1.4493037
H           4.1837038     2.3289997    -2.0561900
C           0.5359443    -0.1070400    -0.7385678
H           1.0859507    -0.0651565    -1.6674624
N           3.4190938     0.8114753    -0.8921361
C           3.7010127    -0.2601406    -0.1340634
C           5.0059188    -0.7216675     0.0871265
H           5.1591027    -1.5955451     0.7097411
C           6.0625324    -0.0304554    -0.4982063
H           7.0875867    -0.3562636    -0.3456910
O           2.8164022    -1.8988855     1.3269695
O          -1.4156981    -0.2080105     2.8661208
23
144_C11H8N2O2_0-5-6-16 (-120,) energy =    -683.9325734
N           0.5500834    -0.3780821     1.5589688
H           1.0337640    -0.6483310     2.4093395
C          -0.7803050     0.0551965     1.7480660
C          -1.4749151     0.3097926     0.4962658
H          -2.5024713     0.6456864     0.5795002
C           1.1599076    -0.5847715     0.3512488
C           2.5710929    -1.1015971     0.4394402
C          -0.8684570     0.1212716    -0.7130747
H          -1.4208461     0.3157237    -1.6292642
C           5.7505193     1.1763900    -1.1652066
H           6.5336187     1.8027435    -1.5817017
C           4.4109787     1.5622954    -1.2715797
H           4.1415749     2.4902476    -1.7723993
C           0.4845736    -0.3169169    -0.8068732
H           0.9765763    -0.4303376    -1.7637536
N           3.3974576     0.8452303    -0.7803404
C           3.6968167    -0.3032700    -0.1531283
C           5.0053358    -0.7805900     0.0009499
H           5.1706273    -1.7181577     0.5196264
C           6.0507813    -0.0212114    -0.5158855
H           7.0794431    -0.3554079    -0.4144738
O           2.8001460    -2.0955032     1.1151349
O          -1.2333659     0.1783129     2.8809121
23
144_C11H8N2O2_0-5-6-16 (-105,) energy =    -683.9295054
N           0.6306071    -0.2234069     1.4886785
H           1.1707205    -0.3117394     2.3428962
C          -0.6790463     0.2770037     1.6825423
C          -1.4504341     0.3304571     0.4539038
H          -2.4648962     0.7029969     0.5405141
C           1.1595670    -0.6344661     0.2978663
C           2.5666421    -1.1879207     0.3592351
C          -0.9248286    -0.0740371    -0.7404859
H          -1.5332962    -0.0222668    -1.6402900
C           5.7313699     1.2453671    -1.0173153
H           6.5083615     1.9139539    -1.3755568
C           4.3964414     1.6622880    -1.0062346
H           4.1259505     2.6576830    -1.3531429
C           0.4113222    -0.5596985    -0.8424018
H           0.8323730    -0.8589190    -1.7942674
N           3.3902525     0.8938848    -0.5828842
C           3.6948226    -0.3374450    -0.1432207
C           4.9984565    -0.8487872    -0.1107499
H           5.1659920    -1.8529075     0.2628661
C           6.0360695    -0.0370081    -0.5600836
H           7.0615990    -0.3952267    -0.5534849
O           2.7712326    -2.2708723     0.8833046
O          -1.0461955     0.6063311     2.8053224
23
144_C11H8N2O2_0-5-6-16 (-90,) energy =    -683.9287658
N           0.7165968    -0.0549107     1.4086861
H           1.3362434     0.0426272     2.2056634
C          -0.5715150     0.4961950     1.6156352
C          -1.4379377     0.3568772     0.4599862
H          -2.4395329     0.7595546     0.5598704
C           1.1545757    -0.6489074     0.2600579
C           2.5527554    -1.2365023     0.2771947
C          -1.0085336    -0.2469042    -0.6877013
H          -1.6850075    -0.3339554    -1.5347607
C           5.7285951     1.2998788    -0.8590281
H           6.5064468     1.9963799    -1.1570984
C           4.4038303     1.7343989    -0.7451384
H           4.1421867     2.7707117    -0.9495181
C           0.3118645    -0.7707035    -0.8079755
H           0.6477242    -1.2517272    -1.7184933
N           3.3972892     0.9329414    -0.3898619
C           3.6916984    -0.3504021    -0.1262609
C           4.9845213    -0.8823423    -0.2029376
H           5.1438289    -1.9291818     0.0314373
C           6.0225206    -0.0354633    -0.5818786
H           7.0403096    -0.4073445    -0.6585763
O           2.7256281    -2.3984042     0.6011461
O          -0.8443150     1.0171459     2.6918906
23
144_C11H8N2O2_0-5-6-16 (-75,) energy =    -683.9305065
N           0.7802768     0.1087408     1.2765196
H           1.4776838     0.3930533     1.9554076
C          -0.4953522     0.6801695     1.4944609
C          -1.4518431     0.3427049     0.4551622
H          -2.4487278     0.7533646     0.5693428
C           1.1417193    -0.6492500     0.1990209
C           2.5305720    -1.2496892     0.1704303
C          -1.1049549    -0.4369970    -0.6114416
H          -1.8460722    -0.6665453    -1.3734245
C           5.7585961     1.3310516    -0.6950009
H           6.5501426     2.0385737    -0.9225986
C           4.4528169     1.7833010    -0.4794890
H           4.2198924     2.8448852    -0.5328251
C           0.2103679    -0.9679062    -0.7502834
H           0.4781887    -1.6098028    -1.5802987
N           3.4313567     0.9694808    -0.2027711
C           3.6898710    -0.3463093    -0.1265078
C           4.9626873    -0.8982925    -0.3133062
H           5.0936827    -1.9713525    -0.2278382
C           6.0161170    -0.0374182    -0.6091867
H           7.0186511    -0.4243254    -0.7683176
O           2.6758787    -2.4537054     0.2949581
O          -0.6915379     1.3772081     2.4843396
23
144_C11H8N2O2_0-5-6-16 (-60,) energy =    -683.9341585
N           0.8045078     0.3028669     1.0869993
H           1.5594293     0.7880831     1.5605728
C          -0.4727336     0.8742591     1.2763112
C          -1.4906948     0.2951090     0.4138246
H          -2.4926765     0.6955610     0.5207362
C           1.1204860    -0.6477133     0.1543740
C           2.5076804    -1.2382771     0.1253103
C          -1.1905658    -0.6770762    -0.4973932
H          -1.9739031    -1.0806763    -1.1345391
C           5.8023859     1.3334596    -0.5156050
H           6.6137097     2.0373336    -0.6737004
C           4.5585810     1.7858704    -0.0663810
H           4.3935330     2.8414974     0.1387595
C           0.1328062    -1.1877537    -0.6264642
H           0.3693965    -1.9914164    -1.3119734
N           3.5153273     0.9769299     0.1357607
C           3.6870946    -0.3353460    -0.0988895
C           4.8990275    -0.8890360    -0.5271846
H           4.9693560    -1.9602592    -0.6783960
C           5.9731290    -0.0313004    -0.7489134
H           6.9272435    -0.4194480    -1.0940409
O           2.6457243    -2.4514361     0.1321745
O          -0.6318285     1.7692731     2.0997648
23
144_C11H8N2O2_0-5-6-16 (-45,) energy =    -683.9385579
N           0.8433828     0.4086265     0.9056996
H           1.6374395     0.9539438     1.2339890
C          -0.4247855     0.9877178     1.1078801
C          -1.4959131     0.2767264     0.4241477
H          -2.4946454     0.6794043     0.5522297
C           1.1055022    -0.6700122     0.1024832
C           2.4947686    -1.2389280     0.0247591
C          -1.2486814    -0.8171259    -0.3557059
H          -2.0704667    -1.3177065    -0.8621073
C           5.8406563     1.3302098    -0.3730527
H           6.6679843     2.0275040    -0.4611998
C           4.6198469     1.7550851     0.1562089
H           4.4861382     2.7803277     0.4940622
C           0.0709789    -1.3265448    -0.5142918
H           0.2761949    -2.2168032    -1.0943309
N           3.5595309     0.9522281     0.2809630
C           3.6850480    -0.3266120    -0.1158016
C           4.8740528    -0.8500249    -0.6370295
H           4.9127554    -1.8958141    -0.9191447
C           5.9671567     0.0008420    -0.7761911
H           6.9026763    -0.3666301    -1.1883438
O           2.6452408    -2.4487187    -0.0714099
O          -0.5450055     1.9945512     1.7987089
23
144_C11H8N2O2_0-5-6-16 (-30,) energy =    -683.9418886
N           0.8486487     0.4808578     0.7278728
H           1.6623664     1.0418223     0.9797993
C          -0.4114816     1.0541711     0.9756959
C          -1.5162858     0.2645144     0.4482707
H          -2.5112123     0.6620178     0.6164056
C           1.0741829    -0.6747008     0.0272911
C           2.4637856    -1.2177829    -0.1396405
C          -1.3053288    -0.8994633    -0.2351972
H          -2.1517426    -1.4608551    -0.6234310
C           5.8685604     1.3144929    -0.2552826
H           6.7131164     1.9963453    -0.2685570
C           4.6384036     1.7328653     0.2555767
H           4.5114737     2.7378875     0.6513504
C           0.0090652    -1.4001880    -0.4471288
H           0.1934508    -2.3345812    -0.9604573
N           3.5590665     0.9465881     0.2927686
C           3.6683078    -0.3083579    -0.1784027
C           4.8651036    -0.8203290    -0.6949531
H           4.8918359    -1.8454863    -1.0450641
C           5.9804632     0.0111990    -0.7394075
H           6.9219416    -0.3514527    -1.1421296
O           2.6188462    -2.4128935    -0.3562662
O          -0.5042820     2.1189367     1.5791052
23
144_C11H8N2O2_0-5-6-16 (-15,) energy =    -683.9437856
N           0.8384988     0.5651317     0.5801285
H           1.6593457     1.1429111     0.7671194
C          -0.4139523     1.1191072     0.8943420
C          -1.5322540     0.2622822     0.5224005
H          -2.5224426     0.6438551     0.7463611
C           1.0458481    -0.6408422    -0.0357040
C           2.4306450    -1.1500036    -0.3112427
C          -1.3396404    -0.9471383    -0.0833781
H          -2.1957604    -1.5608435    -0.3529821
C           5.8907101     1.3113713    -0.1367458
H           6.7500957     1.9717217    -0.0757131
C           4.6417483     1.7439501     0.3120824
H           4.5123512     2.7396666     0.7298014
C          -0.0317169    -1.4256466    -0.3694224
H           0.1423340    -2.3861742    -0.8356215
N           3.5454332     0.9825634     0.2605654
C           3.6511154    -0.2597963    -0.2436011
C           4.8651277    -0.7806739    -0.7100481
H           4.8882247    -1.7921551    -1.0976691
C           6.0006150     0.0222828    -0.6577065
H           6.9557202    -0.3512400    -1.0159628
O           2.5795395    -2.3158383    -0.6581015
O          -0.4930920     2.2217488     1.4281965
23
144_C11H8N2O2_0-5-6-16 (0,) energy =    -683.9443735
N           0.8285418     0.6248541     0.4239916
H           1.6461773     1.2232638     0.5530999
C          -0.4141321     1.1504670     0.8143623
C          -1.5228061     0.2304343     0.5960658
H          -2.5055147     0.5886925     0.8827446
C           1.0370939    -0.6170545    -0.1152697
C           2.4098779    -1.0847057    -0.5024157
C          -1.3299551    -1.0114218     0.0599198
H          -2.1783342    -1.6746315    -0.0905935
C           5.9177136     1.2723467    -0.0341389
H           6.7897120     1.9044945     0.1013003
C           4.6530992     1.7332523     0.3353227
H           4.5233011     2.7254047     0.7612405
C          -0.0319693    -1.4591661    -0.3082790
H           0.1418431    -2.4379625    -0.7347728
N           3.5423002     1.0049269     0.1944941
C           3.6461931    -0.2301342    -0.3275972
C           4.8741950    -0.7744793    -0.7262737
H           4.8942004    -1.7754330    -1.1402937
C           6.0261040    -0.0082817    -0.5757142
H           6.9926034    -0.4032202    -0.8756971
O           2.5442904    -2.2050271    -0.9812473
O          -0.4941831     2.2808570     1.2867842
23
144_C11H8N2O2_0-5-6-16 (15,) energy =    -683.9437856
N           0.7951598     0.6907038     0.2745570
H           1.6002566     1.3141083     0.3505210
C          -0.4355418     1.1816853     0.7420646
C          -1.5112513     0.2014849     0.6703403
H          -2.4839378     0.5323723     1.0176502
C           1.0241783    -0.5780452    -0.1885235
C           2.3779132    -0.9972303    -0.6830074
C          -1.2992086    -1.0642270     0.2015362
H          -2.1221909    -1.7739196     0.1655008
C           5.9205815     1.2248639     0.0737288
H           6.8010664     1.8240938     0.2834940
C           4.6492188     1.7223377     0.3646482
H           4.5221653     2.7112616     0.7988959
C          -0.0142336    -1.4762656    -0.2462571
H           0.1709765    -2.4691240    -0.6337851
N           3.5276455     1.0341176     0.1350899
C           3.6282277    -0.1934684    -0.4050267
C           4.8613689    -0.7697646    -0.7366248
H           4.8769920    -1.7595936    -1.1769340
C           6.0246683    -0.0473722    -0.4882407
H           6.9963011    -0.4687736    -0.7299916
O           2.4902039    -2.0570445    -1.2878506
O          -0.5312624     2.3323621     1.1590329
23
144_C11H8N2O2_0-5-6-16 (30,) energy =    -683.9418886
N           0.7614460     0.7334943     0.1131097
H           1.5425110     1.3890467     0.1348645
C          -0.4589370     1.1916783     0.6410923
C          -1.4779183     0.1534140     0.7186262
H          -2.4403012     0.4566534     1.1161459
C           1.0332015    -0.5559637    -0.2616474
C           2.3623352    -0.9238907    -0.8548030
C          -1.2251560    -1.1316710     0.3298552
H          -2.0053246    -1.8849584     0.4085785
C           5.9277769     1.1429864     0.1620201
H           6.8137772     1.7047887     0.4408666
C           4.6583883     1.6750081     0.3963360
H           4.5398728     2.6556633     0.8514043
C           0.0462073    -1.5077552    -0.1853802
H           0.2552121    -2.5134707    -0.5251566
N           3.5296070     1.0319545     0.0850190
C           3.6245153    -0.1814815    -0.4871621
C           4.8538511    -0.7877186    -0.7743356
H           4.8626898    -1.7610504    -1.2505569
C           6.0236063    -0.1137563    -0.4353814
H           6.9937490    -0.5594453    -0.6360490
O           2.4466364    -1.9140397    -1.5701758
O          -0.5881680     2.3619811     0.9876918
23
144_C11H8N2O2_0-5-6-16 (45,) energy =    -683.9385579
N           0.7068393     0.8041901    -0.0568538
H           1.4491527     1.4993974    -0.0933092
C          -0.5098502     1.2341730     0.5081735
C          -1.4512817     0.1474830     0.7386621
H          -2.4072757     0.4263682     1.1679865
C           1.0459752    -0.4975585    -0.3171664
C           2.3509625    -0.8223488    -0.9889456
C          -1.1335965    -1.1504676     0.4554509
H          -1.8558090    -1.9394865     0.6509323
C           5.9304654     1.0700878     0.2598671
H           6.8192038     1.5894988     0.6045662
C           4.6663551     1.6204057     0.4838950
H           4.5570972     2.5748363     0.9940623
C           0.1292717    -1.4953862    -0.1034376
H           0.3786480    -2.5135762    -0.3721748
N           3.5334281     1.0278767     0.0968558
C           3.6239594    -0.1496374    -0.5464746
C           4.8457611    -0.7680669    -0.8365068
H           4.8479136    -1.7079947    -1.3762226
C           6.0185122    -0.1479100    -0.4142777
H           6.9846746    -0.6041559    -0.6104221
O           2.4006446    -1.7401911    -1.7955321
O          -0.6921134     2.4207410     0.7616445
23
144_C11H8N2O2_0-5-6-16 (60,) energy =    -683.9341585
N           0.6156443     0.8499855    -0.2443435
H           1.2795834     1.5987555    -0.4120982
C          -0.6074957     1.2646710     0.3263037
C          -1.4419739     0.1540187     0.7571641
H          -2.3962739     0.4163572     1.2001647
C           1.0502565    -0.4442552    -0.3407204
C           2.3395069    -0.7511111    -1.0601590
C          -1.0299017    -1.1424458     0.6350333
H          -1.6742566    -1.9486412     0.9775551
C           5.9278256     0.9701243     0.3684788
H           6.8184383     1.4443250     0.7692556
C           4.6632978     1.4825719     0.6716214
H           4.5584099     2.3639429     1.3007922
C           0.2293861    -1.4674987     0.0542584
H           0.5427363    -2.4935223    -0.0901676
N           3.5277925     0.9408541     0.2235208
C           3.6210446    -0.1439986    -0.5645348
C           4.8398527    -0.7176132    -0.9443562
H           4.8388291    -1.5821599    -1.5984878
C           6.0146208    -0.1514761    -0.4565274
H           6.9807271    -0.5743673    -0.7171188
O           2.3522643    -1.6013622    -1.9363830
O          -0.8699331     2.4590497     0.4212958
23
144_C11H8N2O2_0-5-6-16 (75,) energy =    -683.9305065
N           0.5279721     0.8396389    -0.5020169
H           1.0676476     1.5808584    -0.9349638
C          -0.7004371     1.2743031     0.0487428
C          -1.4096329     0.2204893     0.7526014
H          -2.3597412     0.4956638     1.1964832
C           1.0599652    -0.4124086    -0.3772987
C           2.3497339    -0.7258502    -1.1042832
C          -0.8964305    -1.0409979     0.8583540
H          -1.4531366    -1.8047364     1.3962641
C           5.9280942     0.8400893     0.4996194
H           6.8165437     1.2669173     0.9550414
C           4.6594475     1.1847919     0.9768511
H           4.5512491     1.8850987     1.8026373
C           0.3554269    -1.3880828     0.2721794
H           0.7492961    -2.3951222     0.3306872
N           3.5267214     0.6932709     0.4693127
C           3.6292412    -0.1706711    -0.5539386
C           4.8494077    -0.5701597    -1.1118298
H           4.8503345    -1.2664667    -1.9431408
C           6.0222088    -0.0550626    -0.5663242
H           6.9908307    -0.3437483    -0.9644781
O           2.3423234    -1.4875102    -2.0561736
O          -1.0578370     2.4383509    -0.0977817
23
144_C11H8N2O2_0-5-6-16 (90,) energy =    -683.9287658
N           0.4188576     0.8075923    -0.6900922
H           0.8369076     1.4890984    -1.3141374
C          -0.8209807     1.2188856    -0.1429025
C          -1.3959592     0.2353362     0.7557927
H          -2.3479886     0.4944525     1.2050342
C           1.0578525    -0.3687109    -0.4217627
C           2.3469814    -0.6404310    -1.1732832
C          -0.7664327    -0.9481627     1.0187633
H          -1.2264066    -1.6623526     1.6977783
C           5.9351956     0.7014430     0.5971072
H           6.8261513     1.0703224     1.0962456
C           4.6707179     0.9613465     1.1359276
H           4.5683392     1.5363362     2.0541206
C           0.4865934    -1.2768264     0.4236257
H           0.9811857    -2.2176680     0.6320097
N           3.5348704     0.5344441     0.5797930
C           3.6305460    -0.1732516    -0.5573729
C           4.8457284    -0.4803099    -1.1812948
H           4.8410456    -1.0521368    -2.1028021
C           6.0220706    -0.0341624    -0.5851283
H           6.9872330    -0.2536143    -1.0327612
O           2.3227449    -1.2313829    -2.2386630
O          -1.2902820     2.3090630    -0.4517797
23
144_C11H8N2O2_0-5-6-16 (105,) energy =    -683.9295054
N           0.3001661     0.7338249    -0.8406037
H           0.6094865     1.3140304    -1.6131938
C          -0.9623345     1.0976638    -0.3143913
C          -1.4091716     0.2109882     0.7446612
H          -2.3734209     0.4380890     1.1851939
C           1.0550707    -0.3317461    -0.4387585
C           2.3455852    -0.5475784    -1.1989738
C          -0.6560102    -0.8526846     1.1542852
H          -1.0240780    -1.4972815     1.9490062
C           5.9703026     0.5532733     0.6667253
H           6.8720480     0.8604907     1.1878145
C           4.7188131     0.7285119     1.2659291
H           4.6378852     1.1748156     2.2551640
C           0.6115952    -1.1398069     0.5692294
H           1.2161919    -1.9707185     0.9111557
N           3.5703034     0.3723644     0.6861276
C           3.6388830    -0.1753924    -0.5375960
C           4.8404844    -0.3911935    -1.2243059
H           4.8147131    -0.8353782    -2.2132197
C           6.0298087    -0.0188714    -0.6042972
H           6.9839124    -0.1702027    -1.1011474
O           2.3119797    -0.9405661    -2.3538426
O          -1.5526878     2.0735605    -0.7649454
23
144_C11H8N2O2_0-5-6-16 (120,) energy =    -683.9325734
N           0.1904251     0.6637809    -0.9762500
H           0.4282999     1.1055573    -1.8584975
C          -1.0975537     0.9742308    -0.4882409
C          -1.4449574     0.2230747     0.7073264
H          -2.4246453     0.4203215     1.1279565
C           1.0475347    -0.2592345    -0.4409007
C           2.3392118    -0.4298968    -1.1950728
C          -0.5889315    -0.6883840     1.2571430
H          -0.8849157    -1.2366593     2.1482860
C           6.0173288     0.4035379     0.7153474
H           6.9347340     0.6408498     1.2455194
C           4.7863692     0.4749355     1.3743222
H           4.7366039     0.7666747     2.4216547
C           0.6977004    -0.9342521     0.6953367
H           1.3902659    -1.6286541     1.1521843
N           3.6196103     0.2017523     0.7854521
C           3.6465247    -0.1575773    -0.5076920
C           4.8271639    -0.2644866    -1.2549925
H           4.7711368    -0.5609751    -2.2963066
C           6.0350243     0.0244265    -0.6270331
H           6.9718853    -0.0438650    -1.1726927
O           2.3017918    -0.6519234    -2.3976457
O          -1.7935357     1.8010309    -1.0676998
23
144_C11H8N2O2_0-5-6-16 (135,) energy =    -683.9365958
N           0.0883553     0.5909522    -1.0686052
H           0.2933448     0.9278970    -2.0043504
C          -1.2234574     0.8253945    -0.6146937
C          -1.4965767     0.1969577     0.6703459
H          -2.4926164     0.3460638     1.0722512
C           1.0368672    -0.1664362    -0.4326396
C           2.3276348    -0.2792620    -1.1873635
C          -0.5555905    -0.5491806     1.3202329
H          -0.7980771    -1.0113326     2.2740662
C           6.0633224     0.2618314     0.7270550
H           6.9971478     0.4220384     1.2573947
C           4.8495220     0.2843336     1.4196294
H           4.8292159     0.4591840     2.4937040
C           0.7516143    -0.7317370     0.7815681
H           1.5087736    -1.2899181     1.3128400
N           3.6638839     0.1024250     0.8332077
C           3.6502612    -0.1131106    -0.4918853
C           4.8129421    -0.1626730    -1.2731848
H           4.7266608    -0.3429013    -2.3384780
C           6.0412533     0.0311838    -0.6482915
H           6.9632562     0.0038721    -1.2221496
O           2.2862288    -0.3631363    -2.4100963
O          -2.0040585     1.4963428    -1.2811451
23
144_C11H8N2O2_0-5-6-16 (150,) energy =    -683.9400677
N           0.0186760     0.5134385    -1.1222581
H           0.2203977     0.7761924    -2.0827950
C          -1.3148684     0.6569069    -0.7058026
C          -1.5445049     0.1428618     0.6389967
H          -2.5574219     0.2297186     1.0165126
C           1.0345003    -0.0610466    -0.4021685
C           2.3277067    -0.1120768    -1.1548300
C          -0.5426897    -0.4263863     1.3706864
H          -0.7517434    -0.8080149     2.3670538
C           6.1129176     0.1189931     0.7330853
H           7.0613721     0.1951218     1.2560781
C           4.9129299     0.1249189     1.4490485
H           4.9178588     0.2030481     2.5346060
C           0.7857154    -0.5297854     0.8624787
H           1.5867156    -0.9482889     1.4521559
N           3.7113987     0.0414833     0.8731255
C           3.6637400    -0.0543604    -0.4652282
C           4.8112918    -0.0757141    -1.2704824
H           4.7014069    -0.1554136    -2.3455915
C           6.0568628     0.0140898    -0.6562492
H           6.9665473     0.0038038    -1.2499718
O           2.2834441    -0.0869499    -2.3820038
O          -2.1528221     1.1674064    -1.4412559
23
144_C11H8N2O2_0-5-6-16 (165,) energy =    -683.9422603
N          -0.0264872     0.4252079    -1.1659494
H           0.1778360     0.6354399    -2.1392947
C          -1.3739705     0.4728854    -0.7815656
C          -1.5774532     0.0797110     0.6085274
H          -2.6016473     0.1003198     0.9645409
C           1.0324199     0.0442994    -0.3807153
C           2.3335150     0.0652079    -1.1206253
C          -0.5372934    -0.3005460     1.4056726
H          -0.7247811    -0.5946650     2.4354667
C           6.1494673    -0.0261554     0.7267906
H           7.1071672    -0.0399012     1.2380822
C           4.9605896    -0.0251258     1.4605668
H           4.9831705    -0.0390599     2.5485870
C           0.8046186    -0.3206517     0.9228635
H           1.6331105    -0.5972399     1.5558063
N           3.7492753    -0.0044423     0.9000368
C           3.6763520     0.0144034    -0.4405757
C           4.8125336     0.0112759    -1.2625495
H           4.6856725     0.0293852    -2.3383962
C           6.0691959    -0.0094383    -0.6648998
H           6.9688074    -0.0114308    -1.2738663
O           2.2946698     0.1894922    -2.3431490
O          -2.2469185     0.8141338    -1.5723605
23
144_C11H8N2O2_0-5-6-16 (180,) energy =    -683.9429781
N          -0.0471364     0.3105826    -1.1940998
H           0.1638176     0.4769684    -2.1746591
C          -1.3998334     0.2727728    -0.8308463
C          -1.5974967     0.0225546     0.5931279
H          -2.6260271    -0.0169775     0.9349880
C           1.0271440     0.1367944    -0.3577685
C           2.3346697     0.2299141    -1.0819079
C          -0.5429579    -0.1524246     1.4407741
H          -0.7227830    -0.3379457     2.4968975
C           6.1609904    -0.1718448     0.7086336
H           7.1218441    -0.2757534     1.2033387
C           4.9795264    -0.1958726     1.4536288
H           5.0112272    -0.3176555     2.5346398
C           0.8048674    -0.0981721     0.9769194
H           1.6435800    -0.2311087     1.6421007
N           3.7652767    -0.0744927     0.9128726
C           3.6794966     0.0794006    -0.4183245
C           4.8085191     0.1166507    -1.2495372
H           4.6736043     0.2463225    -2.3165943
C           6.0686255    -0.0126723    -0.6730449
H           6.9617392     0.0110005    -1.2910308
O           2.3005705     0.4375748    -2.2936536
O          -2.2845837     0.4386297    -1.6636442
