27
343_C11H15N_0-9-22-20 (-165,) energy =    -482.9539104
C           1.3822000    -1.4218788     0.5604527
C           1.8824189    -2.4174409     1.6162197
H           1.0970704    -2.6063113     2.3584985
H           2.7692315    -2.0607446     2.1464489
H           2.1412543    -3.3688772     1.1384902
C           0.1522613    -1.9701672    -0.1898113
H          -0.7794448    -1.7298229     0.3317840
H           0.2199152    -3.0635195    -0.2589910
H           1.1194012    -0.4706443     1.0509576
N           2.3758714    -1.1614354    -0.5063986
C           1.7665759    -1.3301042    -1.8390715
H           2.0440824    -0.5095770    -2.5057101
H           2.1034752    -2.2663625    -2.3078608
C           0.2540594    -1.3471710    -1.5827121
H          -0.2976603    -1.9010986    -2.3489916
H          -0.1294587    -0.3197085    -1.5694319
C           5.4557365     1.7085558     0.0448743
H           6.2401793     2.4463798     0.1847578
C           5.1673493     1.2009991    -1.2220366
H           5.7310727     1.5426301    -2.0869961
C           4.1622083     0.2552755    -1.4092513
H           4.0022213    -0.1378585    -2.4065333
C           3.4047028    -0.2348152    -0.3197310
C           3.7072918     0.2903180     0.9579721
H           3.1494371    -0.0298008     1.8285111
C           4.7135742     1.2387198     1.1280633
H           4.9112942     1.6165570     2.1284988
27
343_C11H15N_0-9-22-20 (-150,) energy =    -482.9507368
C           1.4305757    -1.4051234     0.5798976
C           1.7938828    -2.4831416     1.6102234
H           0.9784843    -2.6079264     2.3338137
H           2.7045597    -2.2396480     2.1650953
H           1.9570326    -3.4444461     1.1097443
C           0.1345196    -1.7707702    -0.1879798
H          -0.7442838    -1.2961541     0.2595265
H          -0.0260648    -2.8557864    -0.1514463
H           1.2983691    -0.4432302     1.0944358
N           2.4684466    -1.2299323    -0.4699124
C           1.9002794    -1.5912770    -1.7771016
H           2.3428454    -1.0179985    -2.5901839
H           2.0885624    -2.6544372    -1.9890962
C           0.3978082    -1.3289228    -1.6308403
H          -0.2049917    -1.8715024    -2.3666543
H           0.1981959    -0.2571363    -1.7508894
C           5.3780830     1.8274553     0.0407467
H           6.1178130     2.6101837     0.1800001
C           4.9972368     1.4208186    -1.2377282
H           5.4380836     1.8926440    -2.1128202
C           4.0471011     0.4195119    -1.4271680
H           3.8040715     0.1383006    -2.4446800
C           3.4434769    -0.2347834    -0.3293460
C           3.8436699     0.1869086     0.9603150
H           3.4219417    -0.2842364     1.8394570
C           4.7878591     1.1955306     1.1348223
H           5.0650480     1.4833819     2.1462533
27
343_C11H15N_0-9-22-20 (-135,) energy =    -482.9490380
C           1.4484811    -1.4131285     0.6106417
C           1.6662337    -2.5505041     1.6150595
H           0.8145560    -2.6233719     2.3032006
H           2.5724166    -2.3987550     2.2102710
H           1.7654124    -3.5099008     1.0940155
C           0.1421902    -1.6092623    -0.2177302
H          -0.6645683    -0.9638692     0.1432841
H          -0.2053113    -2.6459435    -0.1243627
H           1.4084384    -0.4609240     1.1527785
N           2.5412453    -1.3188480    -0.3963228
C           2.0064834    -1.7738557    -1.6837483
H           2.5901985    -1.4002035    -2.5240058
H           2.0574326    -2.8723457    -1.7259208
C           0.5422508    -1.3204589    -1.6736107
H          -0.0818310    -1.8487201    -2.4023626
H           0.4855671    -0.2466950    -1.8896522
C           5.2785989     1.9048639    -0.0063518
H           5.9816043     2.7249433     0.1066609
C           4.7714748     1.5677130    -1.2608437
H           5.0698397     2.1358679    -2.1388064
C           3.8650081     0.5193376    -1.4154595
H           3.4792718     0.3157799    -2.4079941
C           3.4479364    -0.2483451    -0.3086718
C           3.9714897     0.1029995     0.9550373
H           3.6918277    -0.4776963     1.8276534
C           4.8632023     1.1620740     1.0999745
H           5.2461472     1.3976151     2.0901111
27
343_C11H15N_0-9-22-20 (-120,) energy =    -482.9486446
C           1.2416547    -1.0663521     0.7442717
C           1.6068343    -1.4487993     2.1762013
H           0.6838566    -1.6224312     2.7422131
H           2.1639381    -0.6613717     2.6899677
H           2.1966249    -2.3726109     2.1963804
C           0.3083658    -2.1099401     0.0778082
H          -0.7395643    -1.8219668     0.2098456
H           0.4362575    -3.0890621     0.5519676
H           0.7139151    -0.0940514     0.7782039
N           2.3634181    -0.9610878    -0.2237020
C           1.7411593    -1.0168548    -1.5456643
H           1.2148004    -0.0766077    -1.7988498
H           2.4990351    -1.1914149    -2.3158550
C           0.7274061    -2.1597328    -1.4121014
H           1.2076801    -3.1153961    -1.6432432
H          -0.1160625    -2.0382397    -2.0986655
C           5.6032655     1.7290632     0.3426929
H           6.4416098     2.4051725     0.4848465
C           4.7801463     1.8434378    -0.7755507
H           4.9706986     2.6168625    -1.5157053
C           3.7003245     0.9776888    -0.9594811
H           3.0719684     1.1030092    -1.8341920
C           3.4161055    -0.0359647    -0.0248147
C           4.2810617    -0.1647326     1.0813390
H           4.1399663    -0.9848069     1.7744108
C           5.3441145     0.7141818     1.2674621
H           5.9915405     0.5870703     2.1316948
27
343_C11H15N_0-9-22-20 (-105,) energy =    -482.9489175
C           1.2439379    -1.0318936     0.7100248
C           1.5825781    -1.3236838     2.1682693
H           0.6563527    -1.3700020     2.7532151
H           2.2147491    -0.5470232     2.6079187
H           2.0951852    -2.2881001     2.2622721
C           0.2929639    -2.0841220     0.0842904
H          -0.7477004    -1.7530343     0.1616943
H           0.3708881    -3.0346777     0.6229107
H           0.7537366    -0.0401283     0.6637600
N           2.3991563    -1.0376877    -0.2232800
C           1.8035435    -1.1336810    -1.5571372
H           1.2999541    -0.1971171    -1.8637379
H           2.5725350    -1.3591007    -2.3028606
C           0.7569329    -2.2420388    -1.3865171
H           1.2201377    -3.2216198    -1.5388289
H          -0.0615697    -2.1456694    -2.1066189
C           5.5660218     1.7248024     0.3905517
H           6.3851966     2.4204452     0.5502761
C           4.6547941     1.9322367    -0.6439033
H           4.7575836     2.7967085    -1.2953681
C           3.5992892     1.0417205    -0.8511821
H           2.8989097     1.2306272    -1.6579801
C           3.4409155    -0.0883726    -0.0309966
C           4.3830466    -0.3009601     0.9922841
H           4.3059803    -1.1988423     1.5960762
C           5.4222350     0.6006916     1.2079340
H           6.1367963     0.4117149     2.0052090
27
343_C11H15N_0-9-22-20 (-90,) energy =    -482.9485065
C           1.2425444    -0.9818461     0.6660018
C           1.5460677    -1.2035647     2.1441830
H           0.6169689    -1.1610056     2.7246161
H           2.2234299    -0.4404528     2.5398528
H           2.0041735    -2.1873827     2.2985298
C           0.2758654    -2.0337447     0.0660510
H          -0.7543243    -1.6636631     0.0832904
H           0.2991183    -2.9536184     0.6601911
H           0.7908740     0.0230867     0.5512758
N           2.4309577    -1.0865939    -0.2149039
C           1.8899487    -1.2426601    -1.5677951
H           1.4431308    -0.3102105    -1.9612103
H           2.6801628    -1.5508088    -2.2600264
C           0.7882842    -2.2942745    -1.3749923
H           1.2118340    -3.3001154    -1.4538482
H           0.0019495    -2.2050448    -2.1310027
C           5.5472203     1.7281166     0.4200113
H           6.3524247     2.4380007     0.5889011
C           4.5360319     2.0161203    -0.4972589
H           4.5481350     2.9561180    -1.0435667
C           3.4994075     1.1069846    -0.7159337
H           2.7167160     1.3527787    -1.4271316
C           3.4659137    -0.1172407    -0.0294745
C           4.4944826    -0.4013443     0.8823058
H           4.4832922    -1.3597150     1.3923081
C           5.5197115     0.5150763     1.1117159
H           6.3075617     0.2738777     1.8208396
27
343_C11H15N_0-9-22-20 (-75,) energy =    -482.9483609
C           1.0255168    -0.7415833     0.2121293
C           1.4213546    -1.1123829     1.6489699
H           0.5291494    -1.1511950     2.2856809
H           2.1118444    -0.3781654     2.0760406
H           1.9040650    -2.0965137     1.6887474
C           0.0655918    -1.7890700    -0.4240268
H          -0.9060844    -1.3519088    -0.6734841
H          -0.1218450    -2.5996633     0.2893358
H           0.5554940     0.2498603     0.2333690
N           2.1654194    -0.6937908    -0.7444570
C           2.2661649    -2.0110999    -1.3719577
H           2.8992294    -1.9544675    -2.2637321
H           2.6898512    -2.7903053    -0.7104311
C           0.7988859    -2.3241927    -1.6746078
H           0.6192937    -3.3898258    -1.8496481
H           0.4865495    -1.7752274    -2.5690032
C           5.6899147     1.4370143     0.2528900
H           6.5916596     1.9951927     0.4890842
C           4.4966827     2.1066471    -0.0349581
H           4.4689342     3.1935057    -0.0334742
C           3.3477653     1.3903217    -0.3582242
H           2.4301871     1.9102518    -0.6198806
C           3.3502456    -0.0167381    -0.3603396
C           4.5559673    -0.6804412    -0.0820272
H           4.5948556    -1.7651613    -0.0993599
C           5.7123023     0.0434491     0.2177196
H           6.6351238    -0.4911062     0.4296205
27
343_C11H15N_0-9-22-20 (-60,) energy =    -482.9511096
C           0.9769975    -0.7349044     0.1249381
C           1.2812893    -0.9132350     1.6183103
H           0.3472506    -0.9175777     2.1932089
H           1.9117028    -0.1043148     2.0001748
H           1.7972002    -1.8631485     1.8036678
C           0.0883728    -1.8805111    -0.4368759
H          -0.9310488    -1.5427011    -0.6473531
H           0.0145447    -2.6832419     0.3065941
H           0.4729248     0.2315183    -0.0095587
N           2.1808546    -0.7626044    -0.7507608
C           2.2803948    -2.0805171    -1.3727727
H           2.9242798    -2.0308335    -2.2575026
H           2.6957877    -2.8555877    -0.7009132
C           0.8177920    -2.3917022    -1.6933047
H           0.6402090    -3.4543983    -1.8869168
H           0.5091619    -1.8263097    -2.5793073
C           5.6787725     1.4065971     0.2340553
H           6.5742488     1.9753846     0.4678188
C           4.4372111     2.0437175     0.1413691
H           4.3641666     3.1178664     0.2935761
C           3.2921451     1.3203459    -0.1751410
H           2.3381863     1.8298880    -0.2792944
C           3.3477889    -0.0751398    -0.3704768
C           4.6022873    -0.7045579    -0.2868943
H           4.6841586    -1.7742254    -0.4501594
C           5.7506035     0.0329338     0.0091748
H           6.7080604    -0.4790225     0.0694671
27
343_C11H15N_0-9-22-20 (-45,) energy =    -482.9534807
C           0.9440987    -0.7013687     0.1016595
C           1.1363791    -0.7277096     1.6235015
H           0.1621739    -0.6667632     2.1235676
H           1.7498218     0.1082013     1.9720256
H           1.6226418    -1.6592119     1.9368170
C           0.0885296    -1.8946652    -0.4004964
H          -0.9476461    -1.6018779    -0.5963162
H           0.0650102    -2.6747189     0.3705729
H           0.4532269     0.2447229    -0.1690703
N           2.2026012    -0.8241049    -0.6749282
C           2.2802796    -2.1294851    -1.3212500
H           2.9201216    -2.0735542    -2.2090291
H           2.6937216    -2.9170193    -0.6636844
C           0.8144381    -2.4201448    -1.6492009
H           0.6234947    -3.4809060    -1.8402398
H           0.5177277    -1.8540402    -2.5393089
C           5.6876568     1.3992196     0.2063003
H           6.5813106     1.9794326     0.4170561
C           4.4228831     1.9914050     0.2714174
H           4.3276951     3.0444045     0.5256968
C           3.2761905     1.2554962    -0.0078759
H           2.3049142     1.7408172     0.0184751
C           3.3568203    -0.1157419    -0.3365165
C           4.6363012    -0.7008904    -0.4078733
H           4.7388088    -1.7501628    -0.6642386
C           5.7803086     0.0522766    -0.1416367
H           6.7539264    -0.4284177    -0.2017404
27
343_C11H15N_0-9-22-20 (-30,) energy =    -482.9549691
C           0.9340109    -0.6365882     0.0718961
C           0.9948914    -0.5916703     1.6044991
H          -0.0127847    -0.4521635     2.0143599
H           1.6246167     0.2254569     1.9672682
H           1.3988276    -1.5310475     1.9995027
C           0.0656827    -1.8122415    -0.4415858
H          -0.9612564    -1.4995615    -0.6545290
H           0.0166275    -2.5913358     0.3296551
H           0.5144220     0.3154344    -0.2895979
N           2.2386399    -0.8692428    -0.5765680
C           2.2757031    -2.1328884    -1.3008001
H           2.9312816    -2.0514067    -2.1754318
H           2.6510777    -2.9700536    -0.6845290
C           0.8060286    -2.3486440    -1.6754663
H           0.5727168    -3.3955106    -1.8939477
H           0.5611205    -1.7532310    -2.5626005
C           5.7140729     1.4238638     0.1273646
H           6.6072911     2.0177358     0.2974946
C           4.4444348     1.9795402     0.3042489
H           4.3432968     3.0194121     0.6061131
C           3.2951401     1.2265839     0.0839445
H           2.3216806     1.6921666     0.2002376
C           3.3812968    -0.1283615    -0.3091605
C           4.6683915    -0.6789976    -0.4887211
H           4.7752512    -1.7176203    -0.7839301
C           5.8100744     0.0916274    -0.2753243
H           6.7869991    -0.3640222    -0.4192881
27
343_C11H15N_0-9-22-20 (-15,) energy =    -482.9561442
C           1.0704245    -0.5823118    -0.0400488
C           1.0296814    -0.9355040     1.4564794
H           0.0574582    -0.6670564     1.8872609
H           1.8068564    -0.3973660     2.0078590
H           1.1893890    -2.0082077     1.6149305
C           0.1359084    -1.4562626    -0.8966426
H          -0.1320254    -0.9167720    -1.8125562
H          -0.7907336    -1.7145501    -0.3743740
H           0.8058509     0.4758744    -0.1601652
N           2.3761355    -0.8301632    -0.6646704
C           2.4220709    -2.1081015    -1.3755278
H           2.7015030    -1.9494139    -2.4281443
H           3.1695087    -2.7898793    -0.9449443
C           0.9991698    -2.6822692    -1.2364709
H           0.9654558    -3.4104771    -0.4185959
H           0.6697722    -3.1972889    -2.1436859
C           5.8574389     1.4527046     0.0638663
H           6.7518759     2.0420290     0.2426818
C           4.6070777     1.9021688     0.4934510
H           4.5202014     2.8548905     1.0106708
C           3.4556884     1.1534345     0.2687810
H           2.5023014     1.5396180     0.6120882
C           3.5182607    -0.0940476    -0.3958415
C           4.7876728    -0.5342599    -0.8354898
H           4.8831295    -1.4743795    -1.3668863
C           5.9292415     0.2302542    -0.6041488
H           6.8888241    -0.1419515    -0.9554858
27
343_C11H15N_0-9-22-20 (0,) energy =    -482.9569936
C           1.0927268    -0.5825656    -0.0135233
C           0.9188500    -0.8798154     1.4854261
H          -0.0663153    -0.5439633     1.8315871
H           1.6822138    -0.3691675     2.0804711
H           1.0049658    -1.9540585     1.6848492
C           0.1745126    -1.4400759    -0.9075265
H          -0.0443900    -0.9024474    -1.8377458
H          -0.7787427    -1.6730942    -0.4225943
H           0.8973064     0.4838200    -0.1876065
N           2.4324833    -0.9210668    -0.5110673
C           2.4455705    -2.1263521    -1.3365343
H           2.6899686    -1.8816942    -2.3834460
H           3.1995233    -2.8457056    -0.9896340
C           1.0214469    -2.6870141    -1.2064678
H           0.9684443    -3.3944746    -0.3711611
H           0.7015801    -3.2178049    -2.1080873
C           5.8615536     1.4946659    -0.0070759
H           6.7440614     2.1146931     0.1193342
C           4.6303389     1.8882449     0.5200008
H           4.5460308     2.8268429     1.0629027
C           3.4935842     1.0994954     0.3656304
H           2.5571419     1.4406841     0.7921415
C           3.5529669    -0.1304504    -0.3310086
C           4.8041635    -0.5164235    -0.8659191
H           4.8957614    -1.4462634    -1.4160027
C           5.9304985     0.2856577    -0.7004671
H           6.8756463    -0.0445342    -1.1252925
27
343_C11H15N_0-9-22-20 (15,) energy =    -482.9571331
C           1.1095649    -0.6280478    -0.0354053
C           0.7988785    -0.8945027     1.4463691
H          -0.1941897    -0.5077935     1.7064208
H           1.5343823    -0.4148172     2.0993661
H           0.8167382    -1.9690066     1.6615223
C           0.2199532    -1.4550677    -0.9873440
H           0.0710133    -0.9093223    -1.9268018
H          -0.7666299    -1.6609736    -0.5601395
H           0.9864535     0.4443589    -0.2370646
N           2.4758026    -1.0416681    -0.4049125
C           2.4797138    -2.1831931    -1.3199256
H           2.7306157    -1.8687204    -2.3474156
H           3.2235675    -2.9317072    -1.0188022
C           1.0472351    -2.7231453    -1.2456544
H           0.9484431    -3.4243162    -0.4089848
H           0.7553612    -3.2511982    -2.1583593
C           5.8382264     1.5012879    -0.0783686
H           6.7039331     2.1513493     0.0070106
C           4.6354359     1.8276465     0.5503356
H           4.5573195     2.7417680     1.1342914
C           3.5212483     0.9987041     0.4502868
H           2.6090726     1.2827076     0.9624357
C           3.5727736    -0.1985989    -0.3002701
C           4.7970550    -0.5211018    -0.9292326
H           4.8856996    -1.4321465    -1.5102001
C           5.9029574     0.3180359    -0.8148263
H           6.8274241     0.0379312    -1.3144701
27
343_C11H15N_0-9-22-20 (30,) energy =    -482.9560279
C           1.1323369    -0.6349946    -0.0479979
C           0.7063806    -0.8623534     1.4112287
H          -0.2923657    -0.4447374     1.5889340
H           1.4030203    -0.3916504     2.1114347
H           0.6781188    -1.9325602     1.6459092
C           0.2752178    -1.4531277    -1.0370376
H           0.1972518    -0.9239052    -1.9944552
H          -0.7403258    -1.6221569    -0.6649349
H           1.0690319     0.4371771    -0.2750014
N           2.5148319    -1.1068987    -0.3045407
C           2.5205603    -2.2283742    -1.2498086
H           2.7845615    -1.8947145    -2.2680758
H           3.2552538    -2.9868521    -0.9532157
C           1.0811369    -2.7468197    -1.2226744
H           0.9319027    -3.4218376    -0.3720600
H           0.8200299    -3.2933877    -2.1338595
C           5.8297376     1.5210457    -0.1257258
H           6.6830653     2.1906575    -0.0717036
C           4.6763783     1.7735716     0.6198419
H           4.6264616     2.6462303     1.2668061
C           3.5821142     0.9155074     0.5624743
H           2.7100003     1.1341882     1.1683237
C           3.5950350    -0.2253831    -0.2717194
C           4.7728604    -0.4795588    -1.0078714
H           4.8419131    -1.3567391    -1.6407941
C           5.8646012     0.3840860    -0.9322844
H           6.7528332     0.1591730    -1.5180481
27
343_C11H15N_0-9-22-20 (45,) energy =    -482.9533846
C           1.1473937    -0.6317386    -0.0643210
C           0.6225189    -0.7927219     1.3711835
H          -0.3823938    -0.3618304     1.4609309
H           1.2704959    -0.2972587     2.0999582
H           0.5683249    -1.8516981     1.6485571
C           0.3261977    -1.4752640    -1.0635810
H           0.3068990    -0.9869095    -2.0455474
H          -0.7097495    -1.6118779    -0.7374025
H           1.1271005     0.4317587    -0.3344946
N           2.5407110    -1.1464572    -0.2111095
C           2.5596850    -2.2723773    -1.1558183
H           2.8260125    -1.9472199    -2.1758075
H           3.2953516    -3.0240727    -0.8461581
C           1.1206270    -2.7856298    -1.1539431
H           0.9352141    -3.4151237    -0.2759068
H           0.8878250    -3.3747603    -2.0461889
C           5.8247377     1.5383809    -0.1377548
H           6.6697973     2.2200133    -0.1060078
C           4.7450123     1.6968790     0.7344575
H           4.7468464     2.5054634     1.4615242
C           3.6683139     0.8164366     0.7052673
H           2.8563538     0.9510334     1.4112266
C           3.6117248    -0.2386131    -0.2322864
C           4.7196225    -0.4047226    -1.0884651
H           4.7489991    -1.2241708    -1.7967075
C           5.8013042     0.4756039    -1.0386880
H           6.6348232     0.3214287    -1.7198684
27
343_C11H15N_0-9-22-20 (60,) energy =    -482.9500296
C           1.1326277    -0.6324465    -0.1449637
C           0.5389265    -0.6468344     1.2713740
H          -0.4819501    -0.2450960     1.2579441
H           1.1252402    -0.0422074     1.9686990
H           0.5029396    -1.6685080     1.6663979
C           0.3401734    -1.5599579    -1.0945747
H           0.3352706    -1.1480659    -2.1111383
H          -0.7014007    -1.6811442    -0.7803390
H           1.1353026     0.4002352    -0.5174100
N           2.5283162    -1.1755680    -0.1854504
C           2.5753513    -2.3324981    -1.0906960
H           2.8297863    -2.0515548    -2.1268883
H           3.3273526    -3.0531713    -0.7490286
C           1.1452804    -2.8667897    -1.0734034
H           0.9530973    -3.4298931    -0.1528031
H           0.9324874    -3.5221108    -1.9236684
C           5.8152483     1.5155337    -0.1164667
H           6.6589808     2.1989656    -0.0837512
C           4.8451046     1.5332006     0.8887289
H           4.9342367     2.2281261     1.7202703
C           3.7746043     0.6448786     0.8577488
H           3.0570013     0.6467861     1.6704186
C           3.6092755    -0.2651532    -0.2073138
C           4.6077306    -0.2902921    -1.1996425
H           4.5503143    -0.9965819    -2.0195815
C           5.6901124     0.5902228    -1.1506723
H           6.4401393     0.5475749    -1.9369048
27
343_C11H15N_0-9-22-20 (75,) energy =    -482.9489351
C           0.9490170    -0.3360765    -0.2274145
C           0.5436829     0.5247104     0.9647531
H          -0.4966692     0.8475531     0.8396813
H           1.1611947     1.4227338     1.0545713
H           0.6146844    -0.0455956     1.8982622
C           0.0342381    -1.5725490    -0.4201674
H          -0.7684894    -1.3471922    -1.1297023
H          -0.4399795    -1.8457054     0.5286527
H           0.8913099     0.2914976    -1.1377203
N           2.3040396    -0.9395933    -0.1499768
C           2.3031721    -1.9957951    -1.1633464
H           2.3230289    -1.5918304    -2.1934910
H           3.1781853    -2.6420429    -1.0410718
C           0.9657726    -2.7063511    -0.9196255
H           1.0837170    -3.4733257    -0.1481701
H           0.5942430    -3.1987389    -1.8236760
C           5.7134303     1.5758303     0.1464288
H           6.5887741     2.2132324     0.2354761
C           4.8451882     1.4093141     1.2287131
H           5.0476496     1.9110295     2.1717356
C           3.7330025     0.5785292     1.1217572
H           3.0947221     0.4112291     1.9824366
C           3.4397471    -0.0877794    -0.0832070
C           4.3252932     0.0792014    -1.1617965
H           4.1399590    -0.4289421    -2.1021980
C           5.4505224     0.8977205    -1.0425583
H           6.1210386     1.0065907    -1.8915652
27
343_C11H15N_0-9-22-20 (90,) energy =    -482.9485259
C           0.9682606    -0.3399512    -0.2865639
C           0.5495637     0.5925758     0.8454645
H          -0.4568981     0.9822239     0.6527224
H           1.2268123     1.4469498     0.9410116
H           0.5336820     0.0543191     1.8002488
C           0.0288313    -1.5589058    -0.4667937
H          -0.7222718    -1.3555001    -1.2368557
H          -0.5099891    -1.7642755     0.4644535
H           0.9807266     0.2420600    -1.2289774
N           2.2942227    -0.9731733    -0.0860049
C           2.3301269    -2.0887066    -1.0354029
H           2.4326914    -1.7552751    -2.0852657
H           3.1730999    -2.7507283    -0.8125273
C           0.9560430    -2.7451660    -0.8412142
H           0.9988473    -3.4698127    -0.0224470
H           0.6275800    -3.2778032    -1.7391232
C           5.6745344     1.5874768     0.1494098
H           6.5420753     2.2375416     0.2242874
C           4.9364506     1.2614701     1.2894704
H           5.2304809     1.6535099     2.2598383
C           3.8340538     0.4135833     1.1938199
H           3.2763038     0.1273492     2.0801809
C           3.4311825    -0.1069132    -0.0461047
C           4.1807282     0.2248191    -1.1858866
H           3.8975412    -0.1698329    -2.1568625
C           5.2946192     1.0603721    -1.0852673
H           5.8648721     1.3023305    -1.9788140
27
343_C11H15N_0-9-22-20 (105,) energy =    -482.9481872
C           0.9935747    -0.3350330    -0.3492389
C           0.5385248     0.6570837     0.7163801
H          -0.4406395     1.0735835     0.4526428
H           1.2420466     1.4900066     0.8175362
H           0.4533933     0.1586912     1.6888538
C           0.0474599    -1.5486055    -0.5275938
H          -0.6477501    -1.3775752    -1.3558249
H          -0.5552064    -1.6969781     0.3748816
H           1.0688575     0.2012818    -1.3158851
N           2.2902920    -0.9713825    -0.0266978
C           2.3771947    -2.1483128    -0.8976467
H           2.5815574    -1.8847604    -1.9525744
H           3.1815140    -2.8109330    -0.5614769
C           0.9767571    -2.7671279    -0.7757477
H           0.9428326    -3.4514239     0.0774561
H           0.7038603    -3.3380019    -1.6687905
C           5.6756606     1.5874847     0.1453702
H           6.5434199     2.2393090     0.2019008
C           5.0805352     1.1058626     1.3126082
H           5.4842099     1.3803865     2.2838545
C           3.9714570     0.2619827     1.2367587
H           3.5060723    -0.1326706     2.1350361
C           3.4354950    -0.1056119    -0.0036773
C           4.0374398     0.3862294    -1.1722243
H           3.6346974     0.1146839    -2.1442665
C           5.1511027     1.2234132    -1.0966243
H           5.6089955     1.5944623    -2.0102557
27
343_C11H15N_0-9-22-20 (120,) energy =    -482.9507633
C           1.3377401    -1.4365443     0.5818430
C           2.3737057    -2.4210462     1.1406783
H           1.8955756    -3.0990199     1.8581018
H           3.1880095    -1.9013957     1.6547608
H           2.8105325    -3.0295071     0.3395869
C           0.1731064    -2.1611720    -0.1511481
H          -0.7591012    -2.1201481     0.4206840
H           0.4257797    -3.2205449    -0.2793224
H           0.9440611    -0.8416863     1.4166652
N           1.8725348    -0.5049670    -0.4487445
C           1.4885523    -0.9928711    -1.7705427
H           1.5611955    -0.1845790    -2.5062571
H           2.1157186    -1.8302107    -2.1319187
C           0.0584848    -1.4772908    -1.5266663
H          -0.3036363    -2.1517842    -2.3091601
H          -0.6162437    -0.6157743    -1.4777261
C           5.6200334     1.3562865     0.1899511
H           6.5766111     1.8417664     0.3613177
C           5.4201430     0.5650242    -0.9404520
H           6.2277050     0.4224702    -1.6546073
C           4.1959209    -0.0690744    -1.1609340
H           4.0698636    -0.6942191    -2.0390565
C           3.1261146     0.1081153    -0.2657538
C           3.3395779     0.9074013     0.8749706
H           2.5217707     1.0568754     1.5744767
C           4.5702405     1.5166440     1.0995085
H           4.7066617     2.1331105     1.9847236
27
343_C11H15N_0-9-22-20 (135,) energy =    -482.9531583
C           1.3124277    -1.4421526     0.5791922
C           2.2781374    -2.3956861     1.2947855
H           1.7299948    -3.0005179     2.0273151
H           3.0680438    -1.8546483     1.8237940
H           2.7537445    -3.0763698     0.5786940
C           0.1970447    -2.2045043    -0.1857474
H          -0.7508991    -2.1999800     0.3611464
H           0.4939405    -3.2531567    -0.3107726
H           0.8590195    -0.7802586     1.3308317
N           1.9457356    -0.6069565    -0.4715846
C           1.5448563    -1.0673819    -1.7964056
H           1.6300614    -0.2507618    -2.5219392
H           2.1592501    -1.9083390    -2.1696315
C           0.1036955    -1.5230035    -1.5607033
H          -0.2656949    -2.1915967    -2.3447824
H          -0.5556174    -0.6488155    -1.5182871
C           5.6308587     1.3654454     0.1637950
H           6.5728582     1.8799966     0.3299761
C           5.3934013     0.6856547    -1.0304077
H           6.1582428     0.6603594    -1.8030771
C           4.1893327     0.0148138    -1.2465664
H           4.0384092    -0.5214245    -2.1777053
C           3.1706582     0.0342766    -0.2736594
C           3.4225074     0.7222522     0.9327776
H           2.6511884     0.7574496     1.6966928
C           4.6343297     1.3721562     1.1440500
H           4.7969463     1.8985993     2.0815241
27
343_C11H15N_0-9-22-20 (150,) energy =    -482.9548176
C           1.2818739    -1.3794045     0.5656575
C           2.1421173    -2.3315896     1.4070871
H           1.5179764    -2.8362416     2.1545074
H           2.9431811    -1.8053045     1.9335624
H           2.6013250    -3.0970638     0.7708014
C           0.1635269    -2.1301579    -0.2008708
H          -0.7898864    -2.1015424     0.3356933