21
338_C9H11N_0-3-16-17 (-165,) energy =    -404.2992622
C           1.1623579    -0.9058340    -0.1910806
H           0.7795693     0.1228690    -0.2857058
H           0.8774490    -1.2945862     0.7948522
N           2.5858924    -1.0347724    -0.5100619
C           2.3448632    -1.6664250    -1.8110044
H           2.8968415    -2.6001541    -1.9781925
C           0.8485746    -1.8042980    -1.4184732
H           0.5582243    -2.8234319    -1.1532238
H           0.1300059    -1.3982245    -2.1330980
H           2.5257257    -0.9947711    -2.6647083
C           5.7349345     1.5159185     0.6061198
H           6.5520853     2.1683249     0.8994988
C           4.4963970     1.5977270     1.2457513
H           4.3442311     2.3199820     2.0442925
C           3.4415576     0.7668095     0.8740467
H           2.4855880     0.8405076     1.3846907
C           3.6106272    -0.1764990    -0.1583518
C           4.8647616    -0.2634281    -0.7955353
H           5.0143379    -0.9943894    -1.5854697
C           5.9065378     0.5782291    -0.4155794
H           6.8647843     0.4966662    -0.9231138
21
338_C9H11N_0-3-16-17 (-150,) energy =    -404.2995741
C           1.1110206    -0.8824177    -0.2577475
H           0.8420739     0.1702898    -0.4357960
H           0.7073347    -1.1889394     0.7148064
N           2.5472623    -1.1496600    -0.4406401
C           2.3428875    -1.7695480    -1.7591196
H           2.8524445    -2.7308434    -1.8972668
C           0.8211554    -1.8118219    -1.4644815
H           0.4628598    -2.8018463    -1.1728725
H           0.1694172    -1.4045164    -2.2398595
H           2.6092842    -1.1055136    -2.5963068
C           5.6684302     1.4911785     0.5605675
H           6.4752850     2.1690065     0.8233849
C           4.4676851     1.5061504     1.2745616
H           4.3353457     2.2010370     2.1003670
C           3.4285343     0.6402950     0.9433513
H           2.5025514     0.6589074     1.5113872
C           3.5729578    -0.2701161    -0.1216211
C           4.7828003    -0.2803165    -0.8415915
H           4.9139888    -0.9780916    -1.6637136
C           5.8144763     0.5903615    -0.4961770
H           6.7410567     0.5646832    -1.0646598
21
338_C9H11N_0-3-16-17 (-135,) energy =    -404.2983230
C           1.0998407    -0.8015381    -0.3418820
H           0.9335933     0.2445927    -0.6402327
H           0.5975954    -0.9805509     0.6159499
N           2.5293127    -1.1834455    -0.3757839
C           2.3709391    -1.8536988    -1.6804541
H           2.8529624    -2.8358057    -1.7506417
C           0.8364944    -1.8174953    -1.4790367
H           0.4268146    -2.7648687    -1.1207297
H           0.2433031    -1.4604147    -2.3231780
H           2.7017338    -1.2345037    -2.5289538
C           5.6451422     1.5046092     0.5429457
H           6.4453020     2.1975964     0.7862233
C           4.4931392     1.4460450     1.3324022
H           4.3920923     2.0978870     2.1967784
C           3.4668188     0.5567658     1.0281254
H           2.5799389     0.5131470     1.6545488
C           3.5702525    -0.3011024    -0.0841738
C           4.7238739    -0.2278068    -0.8853151
H           4.8269671    -0.8783915    -1.7484202
C           5.7508006     0.6592049    -0.5618067
H           6.6376442     0.6936210    -1.1900263
21
338_C9H11N_0-3-16-17 (-120,) energy =    -404.2958561
C           1.0901553    -0.7062617    -0.4631861
H           1.0252015     0.2995021    -0.9050449
H           0.5099601    -0.7252212     0.4663695
N           2.4919354    -1.1809601    -0.3373089
C           2.3775878    -1.9403560    -1.5994022
H           2.8336300    -2.9367069    -1.5741970
C           0.8387076    -1.8353668    -1.4880278
H           0.3823498    -2.7206916    -1.0388238
H           0.2970892    -1.5639780    -2.3963173
H           2.7602946    -1.3956111    -2.4767140
C           5.6301717     1.5027291     0.5518293
H           6.4306610     2.1971335     0.7904857
C           4.5336792     1.3628317     1.4084202
H           4.4776191     1.9515985     2.3207407
C           3.5124891     0.4662637     1.1109358
H           2.6704711     0.3497485     1.7880329
C           3.5590617    -0.3116332    -0.0619054
C           4.6515831    -0.1507828    -0.9302106
H           4.7137128    -0.7355067    -1.8423504
C           5.6818530     0.7364180    -0.6116230
H           6.5249559     0.8351858    -1.2911524
21
338_C9H11N_0-3-16-17 (-105,) energy =    -404.2930478
C           1.0967488    -0.6230595    -0.6061061
H           1.1304444     0.3161545    -1.1794117
H           0.4560268    -0.4831605     0.2718775
N           2.4539582    -1.1592752    -0.3137714
C           2.3819541    -2.0315023    -1.5063527
H           2.7963212    -3.0351629    -1.3579267
C           0.8456515    -1.8567975    -1.5008153
H           0.3300216    -2.6615761    -0.9713250
H           0.3632926    -1.6808582    -2.4644685
H           2.8285987    -1.5924478    -2.4119304
C           5.6138167     1.5140008     0.5614271
H           6.4159393     2.2067698     0.8000862
C           4.5819703     1.2829716     1.4763657
H           4.5782014     1.7973566     2.4341558
C           3.5636749     0.3830878     1.1770995
H           2.7727503     0.1855375     1.8956622
C           3.5445443    -0.2996940    -0.0526888
C           4.5704516    -0.0455353    -0.9761891
H           4.5827157    -0.5535938    -1.9350743
C           5.6032211     0.8399422    -0.6588450
H           6.3971261     1.0112436    -1.3817758
21
338_C9H11N_0-3-16-17 (-90,) energy =    -404.2906778
C           1.1118733    -0.5555870    -0.7419426
H           1.2411252     0.3092891    -1.4116290
H           0.4172423    -0.2842627     0.0614102
N           2.4092931    -1.1221824    -0.2810230
C           2.3812025    -2.1123428    -1.3821572
H           2.7264831    -3.1119344    -1.0938077
C           0.8601061    -1.8676376    -1.5175416
H           0.2656659    -2.5848021    -0.9463000
H           0.4583063    -1.7786989    -2.5290102
H           2.9190438    -1.8016117    -2.2908939
C           5.6169682     1.5099858     0.5709861
H           6.4303232     2.1914326     0.8049947
C           4.6614722     1.1910698     1.5395585
H           4.7289584     1.6242375     2.5343545
C           3.6296500     0.3038060     1.2420168
H           2.8945545     0.0325569     1.9946164
C           3.5227650    -0.2728162    -0.0338584
C           4.4730155     0.0692231    -1.0077818
H           4.4101713    -0.3529029    -2.0060532
C           5.5193037     0.9410472    -0.6989110
H           6.2548043     1.1845181    -1.4617652
21
338_C9H11N_0-3-16-17 (-75,) energy =    -404.2932143
C           1.3943329    -0.5195158    -1.5530349
H           1.3301906    -0.0719956    -2.5513707
H           0.9413207     0.1675285    -0.8220681
N           2.7585334    -0.9624756    -1.1506178
C           2.1907397    -2.1813744    -0.5316386
H           1.9762403    -2.0807149     0.5435334
C           0.9120485    -1.9755539    -1.3756044
H          -0.0446033    -2.1236391    -0.8705323
H           0.9269951    -2.5398149    -2.3111882
H           2.7866848    -3.0872064    -0.6910719
C           5.5308378     1.6081456     0.7487307
H           6.2553673     2.2671738     1.2188283
C           4.9451953     0.5714464     1.4731150
H           5.2126792     0.4176832     2.5157218
C           4.0101365    -0.2780295     0.8761255
H           3.5734912    -1.0814477     1.4603731
C           3.6464367    -0.1011150    -0.4674490
C           4.2757928     0.9202544    -1.2034905
H           4.0346283     1.0281359    -2.2576075
C           5.1879998     1.7773619    -0.5966642
H           5.6533269     2.5663754    -1.1822797
21
338_C9H11N_0-3-16-17 (-60,) energy =    -404.2961754
C           1.4869817    -0.5522115    -1.6905983
H           1.5335085    -0.2460280    -2.7418839
H           1.0190840     0.2525956    -1.1041726
N           2.7805002    -1.0011253    -1.1120711
C           2.1132047    -2.1306924    -0.4306638
H           1.8492029    -1.9170352     0.6169134
C           0.9030918    -1.9479600    -1.3759130
H          -0.0875752    -1.9755779    -0.9178788
H           0.9285623    -2.6211542    -2.2361722
H           2.6663496    -3.0760687    -0.4710143
C           5.5308998     1.6014619     0.7573725
H           6.2501730     2.2684426     1.2239539
C           5.0492210     0.4880700     1.4439913
H           5.3940790     0.2806521     2.4541028
C           4.1204733    -0.3710010     0.8526966
H           3.7675639    -1.2366713     1.4040662
C           3.6546775    -0.1255155    -0.4494904
C           4.1756776     0.9786214    -1.1520931
H           3.8543013     1.1527508    -2.1755872
C           5.0857281     1.8389588    -0.5471162
H           5.4650797     2.6917901    -1.1047182
21
338_C9H11N_0-3-16-17 (-45,) energy =    -404.2985459
C           1.5790237    -0.5992083    -1.8023613
H           1.7278289    -0.4352345    -2.8760348
H           1.1156817     0.2989026    -1.3669294
N           2.7884791    -1.0325845    -1.0673796
C           2.0401880    -2.0871404    -0.3558834
H           1.7492340    -1.7979950     0.6660186
C           0.8890093    -1.9175807    -1.3770609
H          -0.1177945    -1.8284219    -0.9643300
H           0.8944260    -2.6773005    -2.1622665
H           2.5473986    -3.0582692    -0.3171018
C           5.5295175     1.5961863     0.7613689
H           6.2449599     2.2704709     1.2230488
C           5.1377355     0.4252154     1.4109592
H           5.5497552     0.1808219     2.3870916
C           4.2159102    -0.4432559     0.8266823
H           3.9302085    -1.3537426     1.3448435
C           3.6640686    -0.1507627    -0.4336021
C           4.0802888     1.0206188    -1.0958468
H           3.6818154     1.2470223    -2.0812055
C           4.9925068     1.8841009    -0.4965758
H           5.2931910     2.7869463    -1.0226034
21
338_C9H11N_0-3-16-17 (-30,) energy =    -404.2996125
C           1.6589518    -0.6403170    -1.8728984
H           1.9067902    -0.5909233    -2.9401487
H           1.1871382     0.3091521    -1.5758200
N           2.7773225    -1.0281683    -0.9985322
C           1.9761515    -2.0362278    -0.2876874
H           1.6409783    -1.7016286     0.7065422
C           0.8906568    -1.8964717    -1.3863930
H          -0.1298054    -1.7302494    -1.0358389
H           0.8966742    -2.7155410    -2.1093330
H           2.4588470    -3.0156429    -0.1843574
C           5.5500945     1.6016291     0.7641118
H           6.2712461     2.2771552     1.2148007
C           5.2285651     0.3918590     1.3828752
H           5.7006826     0.1198010     2.3238803
C           4.3026554    -0.4791791     0.8125297
H           4.0684670    -1.4194259     1.3036047
C           3.6750595    -0.1520208    -0.4046738
C           4.0046819     1.0670316    -1.0285035
H           3.5366932     1.3308040    -1.9728412
C           4.9307533     1.9279493    -0.4448175
H           5.1695053     2.8649566    -0.9421986
21
338_C9H11N_0-3-16-17 (-15,) energy =    -404.2991873
C           1.7231006    -0.6574313    -1.9062840
H           2.0744991    -0.6893842    -2.9455557
H           1.2153918     0.3057960    -1.7382218
N           2.7462779    -0.9648817    -0.9059974
C           1.9336207    -1.9775739    -0.2273899
H           1.5340710    -1.6414516     0.7422334
C           0.9188031    -1.8861520    -1.3998489
H          -0.1173115    -1.6906395    -1.1166669
H           0.9529867    -2.7429260    -2.0766360
H           2.4300753    -2.9458359    -0.0834171
C           5.6086716     1.6202068     0.7638344
H           6.3511230     2.2855729     1.1945138
C           5.3296680     0.3871107     1.3589035
H           5.8568581     0.0876726     2.2616097
C           4.3805133    -0.4723772     0.8125684
H           4.1772331    -1.4304144     1.2832038
C           3.6835469    -0.1110421    -0.3580768
C           3.9587358     1.1375436    -0.9498796
H           3.4289837     1.4354042    -1.8502628
C           4.9158947     1.9830139    -0.3930341
H           5.1156813     2.9404650    -0.8682990
21
338_C9H11N_0-3-16-17 (0,) energy =    -404.2982465
C           1.6226608    -0.6301968    -1.8783343
H           2.1302343    -0.6614763    -2.8541400
H           0.9900635     0.2696226    -1.8479173
N           2.5088501    -0.7826358    -0.7335105
C           1.9179589    -2.0241029    -0.2552575
H           1.4615954    -1.9560021     0.7436843
C           0.9219434    -1.9520574    -1.4491364
H          -0.1256243    -1.8395984    -1.1619655
H           1.0119639    -2.7695151    -2.1675757
H           2.6015159    -2.8863655    -0.2635127
C           5.6832423     1.5552588     0.6973111
H           6.5051648     2.1606269     1.0677362
C           5.3090265     0.3827978     1.3586250
H           5.8430049     0.0698262     2.2528190
C           4.2568125    -0.4001873     0.8918086
H           3.9780371    -1.3092846     1.4175778
C           3.5465620    -0.0182506    -0.2657196
C           3.9257457     1.1658604    -0.9323099
H           3.3894214     1.4748629    -1.8253298
C           4.9808805     1.9349134    -0.4492587
H           5.2564084     2.8440465    -0.9786257
21
338_C9H11N_0-3-16-17 (15,) energy =    -404.2991873
C           1.6027979    -0.5592584    -1.8000052
H           2.2743009    -0.5594145    -2.6734473
H           0.8956222     0.2735674    -1.9043647
N           2.3065614    -0.6057051    -0.5176049
C           1.9716793    -2.0087107    -0.2609118
H           1.5199527    -2.2023056     0.7205106
C           1.0009790    -1.9533817    -1.4723382
H          -0.0532066    -1.9209934    -1.1878819
H           1.1464508    -2.7232083    -2.2327035
H           2.8228268    -2.6943628    -0.3958825
C           5.7608447     1.4958338     0.6293924
H           6.6516259     2.0399913     0.9291079
C           5.3161323     0.3981612     1.3708857
H           5.8640923     0.0816937     2.2552284
C           4.1744983    -0.3040774     0.9945549
H           3.8374536    -1.1527870     1.5834069
C           3.4433913     0.0851120    -0.1459482
C           3.9001259     1.1853604    -0.8981295
H           3.3522661     1.4979754    -1.7825332
C           5.0414482     1.8803883    -0.5039729
H           5.3741522     2.7292385    -1.0966508
21
338_C9H11N_0-3-16-17 (30,) energy =    -404.2996126
C           1.6864043    -0.5787772    -1.8173958
H           2.4466673    -0.6421923    -2.6113382
H           0.9962828     0.2395406    -2.0560929
N           2.2658972    -0.5209626    -0.4658722
C           1.9564512    -1.9315656    -0.1866932
H           1.4671607    -2.1110405     0.7783448
C           1.0554981    -1.9465906    -1.4488314
H          -0.0113008    -1.8849679    -1.2214705
H           1.2290749    -2.7618368    -2.1538940
H           2.8342470    -2.5919273    -0.2652472
C           5.8080325     1.4811057     0.6093140
H           6.7180443     2.0026434     0.8910802
C           5.3868251     0.3551187     1.3196891
H           5.9716189    -0.0066815     2.1620118
C           4.2219365    -0.3210715     0.9631828
H           3.9044593    -1.1917679     1.5299068
C           3.4459303     0.1246185    -0.1238797
C           3.8711866     1.2631419    -0.8357617
H           3.2793001     1.6259799    -1.6714551
C           5.0389838     1.9270071    -0.4682787
H           5.3501459     2.8029012    -1.0325175
21
338_C9H11N_0-3-16-17 (45,) energy =    -404.2985456
C           1.7553457    -0.6521842    -1.8665346
H           2.5802857    -0.8174147    -2.5757995
H           1.1193211     0.1561893    -2.2457902
N           2.2248328    -0.4710939    -0.4747134
C           1.8914183    -1.8657710    -0.1265126
H           1.3669134    -1.9836458     0.8289335
C           1.0511940    -1.9573155    -1.4236911
H          -0.0204313    -1.8301287    -1.2529044
H           1.2178051    -2.8362024    -2.0496025
H           2.7649253    -2.5362130    -0.1366699
C           5.8124251     1.4662991     0.5941604
H           6.7298269     1.9754250     0.8748977
C           5.4262876     0.2932872     1.2434021
H           6.0447859    -0.1177568     2.0376561
C           4.2522519    -0.3694361     0.8857230
H           3.9649931    -1.2764424     1.4090771
C           3.4346685     0.1375801    -0.1402203
C           3.8167259     1.3346423    -0.7765641
H           3.1810926     1.7511811    -1.5533244
C           4.9963910     1.9800876    -0.4177564
H           5.2757773     2.8985327    -0.9283301
21
338_C9H11N_0-3-16-17 (60,) energy =    -404.2961753
C           1.8444154    -0.7617990    -1.9270284
H           2.7172624    -1.0584938    -2.5275738
H           1.2995286     0.0279322    -2.4566897
N           2.2028120    -0.4395157    -0.5209170
C           1.8160553    -1.7978648    -0.0839602
H           1.2591880    -1.8300127     0.8595426
C           1.0309959    -1.9676939    -1.4053408
H          -0.0337929    -1.7462551    -1.3001128
H           1.1581864    -2.9138255    -1.9350901
H           2.6648911    -2.4965821    -0.0204355
C           5.7994394     1.4721611     0.5931588
H           6.7149360     1.9788079     0.8848279
C           5.4618219     0.2423855     1.1559957
H           6.1155499    -0.2166466     1.8937076
C           4.2893090    -0.4178015     0.7825212
H           4.0433727    -1.3698575     1.2419133
C           3.4276545     0.1494834    -0.1707596
C           3.7550215     1.4108671    -0.7055298
H           3.0735939     1.8781983    -1.4115129
C           4.9347526     2.0511630    -0.3413856
H           5.1725500     3.0188004    -0.7764630
21
338_C9H11N_0-3-16-17 (75,) energy =    -404.2932142
C           1.9483904    -0.8903379    -1.9631278
H           2.8495527    -1.3155735    -2.4307503
H           1.5154659    -0.1422244    -2.6369052
N           2.1969029    -0.4142157    -0.5737277
C           1.7236009    -1.7090270    -0.0348030
H           1.1148000    -1.6239902     0.8725294
C           1.0144679    -1.9743158    -1.3825921
H          -0.0338755    -1.6662867    -1.3770638
H           1.1015485    -2.9797821    -1.7993054
H           2.5258097    -2.4420899     0.1419344
C           5.7977679     1.4803177     0.5861227
H           6.7113713     1.9851503     0.8873302
C           5.5192388     0.1931199     1.0422215
H           6.2181370    -0.3124971     1.7041199
C           4.3478981    -0.4637106     0.6564309
H           4.1516026    -1.4632232     1.0305099
C           3.4295335     0.1655426    -0.1976518
C           3.6975682     1.4819668    -0.6174216
H           2.9646218     1.9913086    -1.2373578
C           4.8768577     2.1211614    -0.2490224
H           5.0677808     3.1341888    -0.5944837
21
338_C9H11N_0-3-16-17 (90,) energy =    -404.2906781
C           1.4470027    -1.3010773    -0.0721718
H           0.6966573    -0.8605654     0.5944602
H           2.0823327    -1.9890464     0.5077161
N           2.2391670    -0.3159740    -0.8589134
C           2.1780580    -1.1987873    -2.0466374
H           3.0380930    -1.8768501    -2.1572404
C           0.9712483    -1.9219257    -1.4043071
H           0.9525114    -3.0119341    -1.4672747
H           0.0123364    -1.5166746    -1.7363818
H           2.0261152    -0.6663825    -2.9926613
C           5.7788217     1.2907807     0.8238115
H           6.6758378     1.7131827     1.2683173
C           4.5304605     1.8690596     1.0687317
H           4.4514148     2.7464428     1.7057494
C           3.3839489     1.3362103     0.4840315
H           2.4118189     1.7917417     0.6507176
C           3.4586017     0.2062685    -0.3463525
C           4.7126760    -0.3818008    -0.5698135
H           4.8002116    -1.2620469    -1.1992555
C           5.8630050     0.1687567    -0.0007596
H           6.8285066    -0.2917403    -0.1955672
21
338_C9H11N_0-3-16-17 (105,) energy =    -404.2930478
C           1.3678076    -1.1724084    -0.0941127
H           0.5933575    -0.6246681     0.4546559
H           1.9173957    -1.8176929     0.6083869
N           2.2745793    -0.3242446    -0.9147109
C           2.2455619    -1.3232846    -2.0052507
H           3.0722143    -2.0498013    -1.9712918
C           0.9578515    -1.9137771    -1.3856273
H           0.8873644    -3.0020845    -1.3319813
H           0.0478275    -1.5064419    -1.8326650
H           2.1937086    -0.8924990    -3.0116239
C           5.7805372     1.2803200     0.8260616
H           6.6707034     1.7009652     1.2853457
C           4.5135857     1.7685728     1.1601648
H           4.4134935     2.5742470     1.8832468
C           3.3747422     1.2409594     0.5594136
H           2.3908783     1.6339738     0.8012116
C           3.4735967     0.2006598    -0.3823613
C           4.7465054    -0.3007600    -0.6957343
H           4.8565566    -1.1051026    -1.4159150
C           5.8873745     0.2507765    -0.1078527
H           6.8655241    -0.1412911    -0.3757473
21
338_C9H11N_0-3-16-17 (120,) energy =    -404.2958561
C           1.2890145    -1.0308839    -0.1307012
H           0.4933508    -0.3909178     0.2673221
H           1.7373049    -1.6009985     0.6969619
N           2.3074591    -0.3278044    -0.9520649
C           2.3037208    -1.4225906    -1.9440820
H           3.1050527    -2.1614933    -1.7866693
C           0.9565330    -1.9072234    -1.3594685
H           0.8532675    -2.9800815    -1.1853932
H           0.0925131    -1.5409926    -1.9191032
H           2.3276875    -1.0908087    -2.9884340
C           5.7945982     1.2804338     0.8072858
H           6.6842853     1.7000511     1.2680702
C           4.5221053     1.6783023     1.2292639
H           4.4177356     2.4124906     2.0243666
C           3.3811945     1.1507548     0.6332787
H           2.3948797     1.4752956     0.9540412
C           3.4852504     0.2003590    -0.4005430
C           4.7655138    -0.2127132    -0.8051926
H           4.8769167    -0.9450254    -1.5983338
C           5.9045405     0.3389371    -0.2149667
H           6.8859500     0.0150393    -0.5529826
21
338_C9H11N_0-3-16-17 (135,) energy =    -404.2983230
C           1.2258286    -0.9026762    -0.1894443
H           0.4308695    -0.1854139     0.0457493
H           1.5570266    -1.3844103     0.7429118
N           2.3509185    -0.3488970    -0.9755081
C           2.3542785    -1.5115480    -1.8836686
H           3.1289659    -2.2536890    -1.6349422
C           0.9585105    -1.9023015    -1.3400538
H           0.8224727    -2.9474375    -1.0552033
H           0.1397498    -1.5934759    -1.9942687
H           2.4349311    -1.2596079    -2.9475426
C           5.8111299     1.2776264     0.8022549
H           6.6986711     1.7015401     1.2629624
C           4.5400647     1.5818054     1.2978789
H           4.4341409     2.2464797     2.1518282
C           3.3993192     1.0451138     0.7084109
H           2.4156727     1.2961292     1.0960999
C           3.5056466     0.1826064    -0.3999983
C           4.7870673    -0.1338262    -0.8856886
H           4.8951325    -0.7967337    -1.7387489
C           5.9216516     0.4211030    -0.2934066
H           6.9022765     0.1695472    -0.6901764
21
338_C9H11N_0-3-16-17 (150,) energy =    -404.2995741
C           1.1804946    -0.8099527    -0.2451266
H           0.4204897    -0.0247071    -0.1525941
H           1.3877910    -1.2203633     0.7552851
N           2.3987123    -0.4064168    -0.9667704
C           2.3844152    -1.6059018    -1.8185412
H           3.1157419    -2.3678646    -1.5065139
C           0.9428014    -1.8954221    -1.3264419
H           0.7533658    -2.9062252    -0.9600183
H           0.1733552    -1.6228352    -2.0525327
H           2.5173144    -1.4089846    -2.8892334
C           5.8212969     1.3042317     0.7875017
H           6.7030913     1.7507894     1.2375708
C           4.5573868     1.5109282     1.3456881
H           4.4510306     2.1225035     2.2384389
C           3.4222015     0.9414508     0.7744497
H           2.4448885     1.1158595     1.2159178
C           3.5307872     0.1449486    -0.3821322
C           4.8062775    -0.0645325    -0.9402248
H           4.9095284    -0.6727395    -1.8343277
C           5.9323753     0.5145234    -0.3586037
H           6.9077398     0.3409462    -0.8068368
21
338_C9H11N_0-3-16-17 (165,) energy =    -404.2992622
C           1.1181975    -0.7710831    -0.2999862
H           0.4257852     0.0801797    -0.3167227
H           1.1946544    -1.1398008     0.7353466
N           2.4153381    -0.5153845    -0.9299675
C           2.3606344    -1.7140946    -1.7723666
H           3.0273961    -2.5210337    -1.4304306
C           0.8779321    -1.8933305    -1.3464174
H           0.6144834    -2.8722392    -0.9411284
H           0.1629955    -1.6204019    -2.1259501
H           2.5470693    -1.5354577    -2.8390494
C           5.7931189     1.3392289     0.7491518
H           6.6649750     1.8251911     1.1771117
C           4.5439731     1.4532298     1.3626972
H           4.4390189     2.0318393     2.2773937
C           3.4206198     0.8308129     0.8223697
H           2.4552861     0.9329397     1.3099843
C           3.5285264     0.0737301    -0.3606119
C           4.7887049    -0.0315164    -0.9829442
H           4.8855779    -0.6019953    -1.9026404
C           5.9021033     0.5921545    -0.4266779
H           6.8655562     0.4948023    -0.9214110
21
338_C9H11N_0-3-16-17 (180,) energy =    -404.2982465
C           1.1495943    -0.8324161    -0.2292109
H           0.5897587     0.1125971    -0.2951390
H           1.0289538    -1.2338488     0.7881873
N           2.5299643    -0.7475898    -0.6835729
C           2.3787258    -1.6843402    -1.7875004
H           2.9914568    -2.5941077    -1.6998372
C           0.8848915    -1.8452708    -1.3810208
H           0.6084187    -2.8486862    -1.0505449
H           0.1692459    -1.5041183    -2.1319983
H           2.5515759    -1.2472716    -2.7824411
C           5.8207609     1.4460341     0.7121700
H           6.6728896     2.0139876     1.0734842
C           4.5785550     1.5483479     1.3434190
H           4.4593445     2.2014112     2.2047926
C           3.4800592     0.8244570     0.8879705
H           2.5205558     0.9150006     1.3897388
C           3.6057383    -0.0304412    -0.2272106
C           4.8607439    -0.1325808    -0.8634667
H           4.9754971    -0.7861610    -1.7238661
C           5.9468899     0.5998255    -0.3923994
H           6.9052233     0.5060728    -0.8978386
