16
390_C6H8N2_0-4-12-10 (-165,) energy =    -342.9564082
C           1.2089106    -1.1045079    -0.4606937
H           0.9190904    -0.1519801    -0.9086399
H           1.6902934    -1.7088693    -1.2437522
H           0.3102113    -1.6207886    -0.1118257
N           2.0743422    -0.8641397     0.6829674
H           2.0880855    -1.5930111     1.3826097
C           5.5633607     1.3036641     0.2528548
H           6.4557127     1.8996153     0.0920714
C           5.3895038     0.5371192     1.4130329
H           6.1542195     0.5219846     2.1856784
C           4.2337058    -0.2079005     1.5717593
H           4.0699065    -0.8085405     2.4630566
C           3.2581347    -0.1671808     0.5476623
N           3.4214684     0.5530408    -0.5730690
C           4.5480932     1.2680248    -0.6962185
H           4.6379307     1.8409014    -1.6186882
16
390_C6H8N2_0-4-12-10 (-150,) energy =    -342.9552140
C           1.2409035    -1.1497237    -0.4626246
H           1.0373746    -0.2745801    -1.0810012
H           1.7751032    -1.8865431    -1.0820904
H           0.2907771    -1.5808779    -0.1348699
N           1.9976149    -0.7417661     0.7155166
H           2.0121204    -1.4393475     1.4490788
C           5.5691141     1.2930402     0.2492975
H           6.4804891     1.8571830     0.0804678
C           5.4062639     0.4785631     1.3762639
H           6.2008839     0.3872771     2.1125943
C           4.2259741    -0.2282742     1.5415568
H           4.0751259    -0.8743808     2.4029286
C           3.2099982    -0.0847959     0.5696218
N           3.3675603     0.6743193    -0.5257334
C           4.5199070     1.3419073    -0.6631316
H           4.6037068     1.9482821    -1.5645140
16
390_C6H8N2_0-4-12-10 (-135,) energy =    -342.9528096
C           1.2846215    -1.2092694    -0.4557568
H           1.2082532    -0.4422937    -1.2273183
H           1.8410645    -2.0646241    -0.8705831
H           0.2770868    -1.5383180    -0.1853442
N           1.9264389    -0.6291626     0.7234219
H           1.9312995    -1.2738525     1.5063719
C           5.5602520     1.3021309     0.2345533
H           6.4844110     1.8435955     0.0605312
C           5.4116773     0.4316294     1.3184999
H           6.2310402     0.2671025     2.0138170
C           4.2124631    -0.2460534     1.4869990
H           4.0745900    -0.9432959     2.3098083
C           3.1634401    -0.0032962     0.5751339
N           3.3092100     0.8080897    -0.4839430
C           4.4799628     1.4366035    -0.6343774
H           4.5542666     2.0863912    -1.5058299
16
390_C6H8N2_0-4-12-10 (-120,) energy =    -342.9495329
C           1.3379893    -1.2673545    -0.4323654
H           1.3210434    -0.6072201    -1.3013622
H           1.9449066    -2.1536375    -0.6782272
H           0.3138204    -1.5868594    -0.2182654
N           1.8542438    -0.5179625     0.7173706
H           1.8270631    -1.0942121     1.5534777
C           5.5553666     1.2945338     0.2226254
H           6.4946043     1.8089470     0.0464224
C           5.4082193     0.3728907     1.2612717
H           6.2429092     0.1357584     1.9161917
C           4.1860956    -0.2667546     1.4309985
H           4.0481270    -1.0080188     2.2142651
C           3.1176868     0.0748430     0.5790223
N           3.2629177     0.9346409    -0.4412171
C           4.4538027     1.5189146    -0.6023565
H           4.5287345     2.2101899    -1.4411889
16
390_C6H8N2_0-4-12-10 (-105,) energy =    -342.9457327
C           1.3989762    -1.3223772    -0.3941675
H           1.4434695    -0.7792575    -1.3409820
H           2.0477771    -2.2104309    -0.4698276
H           0.3672418    -1.6490914    -0.2328759
N           1.7865336    -0.4093376     0.6894664
H           1.7190030    -0.9025052     1.5768100
C           5.5586164     1.2783139     0.2182247
H           6.5146161     1.7630714     0.0469638
C           5.3983522     0.3037495     1.2036062
H           6.2380963    -0.0076651     1.8197328
C           4.1510439    -0.2910809     1.3669440
H           3.9992869    -1.0728258     2.1070543
C           3.0782654     0.1505636     0.5716197
N           3.2357251     1.0611556    -0.4005747
C           4.4475273     1.6005949    -0.5617400
H           4.5334124     2.3370483    -1.3599855
16
390_C6H8N2_0-4-12-10 (-90,) energy =    -342.9472948
C           1.4357586    -1.4804812     0.4107459
H           2.0848763    -2.3646122     0.3131353
H           1.4398797    -1.1665658     1.4595351
H           0.4113182    -1.7614737     0.1477751
N           1.8539861    -0.3527421    -0.4419907
H           1.8372603    -0.6844132    -1.4065483
C           5.7521718     0.9939974     0.1168655
H           6.7826753     1.3223868     0.2107114
C           4.7406074     1.5254445     0.9216163
H           4.9643646     2.2945106     1.6564084
C           3.4355256     1.0806412     0.7454616
H           2.6088037     1.4893612     1.3173920
C           3.1878117     0.0823712    -0.2096830
N           4.1485973    -0.4202060    -0.9968799
C           5.3974862     0.0383217    -0.8321636
H           6.1490463    -0.3849420    -1.4970722
16
390_C6H8N2_0-4-12-10 (-75,) energy =    -342.9501393
C           1.3761622    -1.4048695     0.4507612
H           1.9812602    -2.3195718     0.5512840
H           1.3002105    -0.9360376     1.4366596
H           0.3658649    -1.6829805     0.1358851
N           1.9273083    -0.4444774    -0.5166514
H           1.9689959    -0.8920836    -1.4311755
C           5.7607531     1.0306365     0.1012257
H           6.7773101     1.3967949     0.2048181
C           4.7378106     1.4600148     0.9531812
H           4.9388988     2.1874632     1.7354593
C           3.4514776     0.9723024     0.7666959
H           2.6212423     1.3115030     1.3781452
C           3.2309870     0.0264789    -0.2508744
N           4.2017291    -0.3773387    -1.0825965
C           5.4310158     0.1272499    -0.9049108
H           6.1885082    -0.2181218    -1.6071236
16
390_C6H8N2_0-4-12-10 (-60,) energy =    -342.9527220
C           1.3166445    -1.3258949     0.4767763
H           1.8843134    -2.2133914     0.7979355
H           1.1248364    -0.7065600     1.3579355
H           0.3474451    -1.6505887     0.0873266
N           1.9978667    -0.5406812    -0.5556112
H           2.0765790    -1.0750380    -1.4179651
C           5.7660530     1.0686381     0.0814384
H           6.7683630     1.4717513     0.1847741
C           4.7454971     1.4005257     0.9788946
H           4.9341763     2.0873535     1.8001116
C           3.4774607     0.8668371     0.7977239
H           2.6565643     1.1333271     1.4558181
C           3.2698260    -0.0254069    -0.2725298
N           4.2399765    -0.3391049    -1.1454475
C           5.4493646     0.2080023    -0.9654634
H           6.2039618    -0.0678042    -1.7009745
16
390_C6H8N2_0-4-12-10 (-45,) energy =    -342.9548053
C           1.2604479    -1.2451681     0.4937768
H           1.8075846    -2.0128497     1.0632765
H           0.9077719    -0.4843063     1.1974782
H           0.3759038    -1.7054316     0.0453986
N           2.0529992    -0.6346540    -0.5686083
H           2.1446687    -1.2311954    -1.3853817
C           5.7634746     1.0916840     0.0538962
H           6.7527890     1.5270468     0.1498906
C           4.7605931     1.3315655     0.9982371
H           4.9505168     1.9747122     1.8539257
C           3.5086082     0.7559052     0.8314182
H           2.7090459     0.9452415     1.5399271
C           3.2970535    -0.0771374    -0.2862431
N           4.2538082    -0.3089283    -1.2016178
C           5.4461878     0.2715195    -1.0259091
H           6.1890935     0.0587860    -1.7938078
16
390_C6H8N2_0-4-12-10 (-30,) energy =    -342.9562526
C           1.2281309    -1.1725254     0.4946651
H           1.7261092    -1.8032081     1.2480692
H           0.7832493    -0.3134704     1.0098421
H           0.4095517    -1.7429384     0.0486723
N           2.1179443    -0.7342112    -0.5670776
H           2.2017140    -1.3672392    -1.3537159
C           5.7622359     1.1203296     0.0287512
H           6.7364583     1.5898804     0.1168003
C           4.7797582     1.2751999     1.0105385
H           4.9715093     1.8811853     1.8926218
C           3.5471585     0.6546275     0.8561204
H           2.7688943     0.7707551     1.6026433
C           3.3315901    -0.1260528    -0.2992682
N           4.2724472    -0.2832689    -1.2488246
C           5.4458161     0.3322644    -1.0761250
H           6.1763599     0.1785023    -1.8697181
16
390_C6H8N2_0-4-12-10 (-15,) energy =    -342.9567289
C           1.1798481    -1.1244422     0.4903047
H           1.5843276    -1.6721901     1.3564148
H           0.7267537    -0.1953231     0.8580147
H           0.3831301    -1.7250032     0.0448479
N           2.1745224    -0.8502984    -0.5235000
H           2.2373189    -1.4792397    -1.3122303
C           5.7348903     1.1572623     0.0357828
H           6.6894664     1.6669059     0.1148634
C           4.7709066     1.2396758     1.0438596
H           4.9593537     1.8239675     1.9412473
C           3.5634051     0.5683819     0.9018738
H           2.8044286     0.6212145     1.6746996
C           3.3502857    -0.1799569    -0.2765086
N           4.2771549    -0.2735116    -1.2501887
C           5.4270918     0.3841659    -1.0828419
H           6.1469222     0.2812706    -1.8944311
16
390_C6H8N2_0-4-12-10 (0,) energy =    -342.9565602
C           1.1462282    -1.0955855     0.4749276
H           1.4539739    -1.5375547     1.4339435
H           0.6786774    -0.1224825     0.6848300
H           0.3865424    -1.7450786     0.0339003
N           2.2486471    -0.9794808    -0.4482026
H           2.2227597    -1.4665926    -1.3313562
C           5.7143902     1.1927098     0.0452230
H           6.6475758     1.7422742     0.1106642
C           4.7701575     1.2202040     1.0752786
H           4.9529842     1.8002962     1.9766035
C           3.5887663     0.5019056     0.9493731
H           2.8454904     0.5116811     1.7391531
C           3.3825879    -0.2415060    -0.2348153
N           4.2867968    -0.2752778    -1.2344409
C           5.4117492     0.4270907    -1.0798843
H           6.1142231     0.3716444    -1.9111318
16
390_C6H8N2_0-4-12-10 (15,) energy =    -342.9567289
C           1.1414484    -1.0546135     0.4532236
H           1.3711779    -1.3649880     1.4801874
H           0.6908665    -0.0500668     0.4937096
H           0.3969564    -1.7500237     0.0582534
N           2.3204515    -1.1151783    -0.3826110
H           2.2136715    -1.4364437    -1.3349737
C           5.7063622     1.2090957     0.0080845
H           6.6204609     1.7922196     0.0480480
C           4.7960506     1.1940915     1.0679851
H           4.9867319     1.7743986     1.9674831
C           3.6367462     0.4352972     0.9725755
H           2.9193583     0.4125870     1.7855564
C           3.4207381    -0.3077941    -0.2085957
N           4.2876852    -0.2926234    -1.2401286
C           5.3926013     0.4467806    -1.1162663
H           6.0653642     0.4292955    -1.9732980
16
390_C6H8N2_0-4-12-10 (30,) energy =    -342.9562526
C           1.1058999    -1.0332255     0.4091760
H           1.2229209    -1.2279735     1.4814081
H           0.6886141    -0.0209432     0.2886572
H           0.3821934    -1.7565093     0.0251491
N           2.3648689    -1.2231531    -0.2908607
H           2.2854166    -1.5205769    -1.2561330
C           5.6532129     1.2543906     0.0609535
H           6.5417470     1.8764154     0.0914447
C           4.7753570     1.1724221     1.1453084
H           4.9690970     1.7337625     2.0560341
C           3.6495774     0.3638763     1.0611182
H           2.9618253     0.2800498     1.8956478
C           3.4267192    -0.3497366    -0.1355319
N           4.2649081    -0.2751317    -1.1859856
C           5.3437168     0.5051543    -1.0725200
H           5.9945142     0.5340417    -1.9458803
16
390_C6H8N2_0-4-12-10 (45,) energy =    -342.9548054
C           1.0872992    -0.9889130     0.3334603
H           1.1152525    -0.9710754     1.4277155
H           0.6786630    -0.0275818    -0.0156002
H           0.4011969    -1.7881849     0.0407245
N           2.4076661    -1.2906696    -0.2099889
H           2.3740756    -1.6130990    -1.1723427
C           5.6360182     1.2856450     0.0668877
H           6.5068215     1.9330401     0.0783112
C           4.8135386     1.1399164     1.1883028
H           5.0372839     1.6713857     2.1099104
C           3.7124120     0.2971231     1.1269161
H           3.0735578     0.1514056     1.9916660
C           3.4472108    -0.3733221    -0.0848324
N           4.2356016    -0.2436955    -1.1657071
C           5.2997106     0.5619149    -1.0742451
H           5.9120453     0.6330984    -1.9724342
16
390_C6H8N2_0-4-12-10 (60,) energy =    -342.9527221
C           1.0622418    -0.9430228     0.2625319
H           1.0291364    -0.6564615     1.3178027
H           0.6789148    -0.1004236    -0.3342236
H           0.3923120    -1.7980979     0.1341687
N           2.4195261    -1.3505705    -0.1092694
H           2.4339110    -1.7271565    -1.0544495
C           5.5996079     1.3053516     0.0580368
H           6.4538434     1.9745812     0.0433253
C           4.8525063     1.0950734     1.2219688
H           5.1230241     1.5930961     2.1496177
C           3.7749621     0.2212782     1.1921120
H           3.1985649     0.0101923     2.0871921
C           3.4476207    -0.4017790    -0.0282693
N           4.1667419    -0.2155176    -1.1461597
C           5.2177699     0.6128724    -1.0872500
H           5.7771874     0.7286294    -2.0146673
16
390_C6H8N2_0-4-12-10 (75,) energy =    -342.9501392
C           1.0546733    -0.8979363     0.1709301
H           0.9494175    -0.4205978     1.1500226
H           0.7603859    -0.1686010    -0.6000344
H           0.3628932    -1.7450027     0.1376735
N           2.4270510    -1.3991745     0.0059876
H           2.4984673    -1.8588591    -0.9006681
C           5.5625771     1.3244503     0.0468293
H           6.4001062     2.0134679     0.0024951
C           4.8987203     1.0571838     1.2486918
H           5.2198382     1.5275064     2.1745841
C           3.8434731     0.1551612     1.2532446
H           3.3292526    -0.1123848     2.1709584
C           3.4509090    -0.4280455     0.0348821
N           4.0925285    -0.1906766    -1.1179987
C           5.1276667     0.6610247    -1.0968167
H           5.6281482     0.8189469    -2.0511629
16
390_C6H8N2_0-4-12-10 (90,) energy =    -342.9472947
C           1.0548380    -0.8629204     0.0727370
H           0.8680886    -0.2475185     0.9586957
H           0.8852325    -0.2415704    -0.8204172
H           0.3323638    -1.6848762     0.0757561
N           2.4160658    -1.4251578     0.1423064
H           2.5503760    -1.9890769    -0.6971058
C           5.5262813     1.3384111     0.0351771
H           6.3503044     2.0404659    -0.0466205
C           4.9575148     1.0212671     1.2718060
H           5.3399089     1.4655403     2.1871433
C           3.9162007     0.1017121     1.3188970
H           3.4668361    -0.2076058     2.2569912
C           3.4467875    -0.4457482     0.1146782
N           3.9973184    -0.1601997    -1.0730771
C           5.0178490     0.7087057    -1.0982816
H           5.4467605     0.9073414    -2.0794431
16
390_C6H8N2_0-4-12-10 (105,) energy =    -342.9457327
C           1.1088507    -0.9029286    -0.2045942
H           0.7473531    -0.1863293     0.5511252
H           1.1585021    -0.3931153    -1.1694994
H           0.3914558    -1.7250756    -0.2861570
N           2.4351286    -1.4542223     0.1038982
H           2.3870908    -1.9548117     0.9883508
C           5.4769996     1.3814784     0.1722689
H           6.2699364     2.1208262     0.1186790
C           5.0579862     0.8446484     1.3899217
H           5.5091326     1.1674810     2.3248050
C           4.0274890    -0.0904057     1.3955069
H           3.6589938    -0.5077574     2.3292882
C           3.4808081    -0.5063937     0.1680962
N           3.8555362     0.0327842    -1.0015190
C           4.8267525     0.9503246    -0.9844564
H           5.1034191     1.3621241    -1.9544113
16
390_C6H8N2_0-4-12-10 (120,) energy =    -342.9495329
C           1.1031212    -0.9367910    -0.2884186
H           0.6524710    -0.1476976     0.3349113
H           1.2402984    -0.5448498    -1.2977671
H           0.4164023    -1.7870930    -0.3358333
N           2.3998573    -1.3983320     0.2170073
H           2.2895868    -1.8202173     1.1344662
C           5.4892904     1.3730947     0.1638132
H           6.2938330     2.0968522     0.0818221
C           5.1384389     0.8030517     1.3893001
H           5.6585227     1.0835005     2.3018353
C           4.0898921    -0.1078888     1.4370227
H           3.7764676    -0.5492623     2.3798742
C           3.4473103    -0.4659498     0.2358023
N           3.7580487     0.1034868    -0.9391089
C           4.7521398     0.9962162    -0.9582193
H           4.9727200     1.4335494    -1.9314613
16
390_C6H8N2_0-4-12-10 (135,) energy =    -342.9528097
C           1.1157985    -0.9782824    -0.3605083
H           0.5908105    -0.1321632     0.1104651
H           1.3443134    -0.7093544    -1.3924271
H           0.4550695    -1.8500306    -0.3618275
N           2.3609841    -1.3281252     0.3221444
H           2.1922618    -1.6829506     1.2571696
C           5.5016843     1.3721799     0.1908765
H           6.3183778     2.0798851     0.0923837
C           5.2044072     0.7584266     1.4114487
H           5.7842285     0.9864777     2.3023407
C           4.1403611    -0.1293242     1.4849156
H           3.8741307    -0.6074032     2.4244595
C           3.4135978    -0.4140833     0.3094637
N           3.6747798     0.1936170    -0.8583227
C           4.6942268     1.0581313    -0.8997502
H           4.8720320     1.5267578    -1.8671954
16
390_C6H8N2_0-4-12-10 (150,) energy =    -342.9552140
C           1.1289459    -1.0154352    -0.4200580
H           0.6021484    -0.0812716    -0.1714014
H           1.4320870    -0.9625473    -1.4664795
H           0.4425792    -1.8571896    -0.2919681
N           2.3052419    -1.2437090     0.4113775
H           2.0839351    -1.5467260     1.3516691
C           5.5060722     1.3674714     0.1880706
H           6.3365215     2.0556371     0.0691298
C           5.2633791     0.7099512     1.3999767
H           5.9052655     0.8809746     2.2605979
C           4.1842381    -0.1531070     1.5029690
H           3.9672777    -0.6711495     2.4339527
C           3.3713782    -0.3582755     0.3651561
N           3.5824165     0.2866558    -0.7926027
C           4.6287480     1.1189566    -0.8627807
H           4.7647778     1.6182937    -1.8216137
16
390_C6H8N2_0-4-12-10 (165,) energy =    -342.9564082
C           1.1537176    -1.0533584    -0.4589592
H           0.6298797    -0.0866973    -0.4221291
H           1.5428245    -1.1809431    -1.4710137
H           0.4403693    -1.8552514    -0.2491422
N           2.2436837    -1.1450317     0.4992935
H           1.9823713    -1.4250199     1.4343140
C           5.5117830     1.3628617     0.2029276
H           6.3584420     2.0276245     0.0666787
C           5.3106147     0.6628843     1.4002117
H           6.0063404     0.7729623     2.2283610
C           4.2143162    -0.1727773     1.5264456
H           4.0348528    -0.7316274     2.4415978
C           3.3277456    -0.2932973     0.4302407
N           3.5043899     0.3832078    -0.7154084
C           4.5772933     1.1805045    -0.8100498
H           4.6844729     1.7070924    -1.7579027
16
390_C6H8N2_0-4-12-10 (180,) energy =    -342.9561411
C           1.1853427    -1.0644218    -0.4527054
H           0.8590621    -0.0625285    -0.7469347
H           1.5761129    -1.5626183    -1.3504545
H           0.3225231    -1.6252062    -0.0830559
N           2.1687174    -0.9831917     0.6089278
H           2.1021512    -1.6303373     1.3781026
C           5.5560408     1.3398521     0.2614333
H           6.4262150     1.9717463     0.1175326
C           5.3679076     0.6027086     1.4392321
H           6.0973238     0.6520345     2.2439890
C           4.2408460    -0.1873839     1.5785252
H           4.0643205    -0.7622919     2.4842682
C           3.3119650    -0.2317051     0.5099657
N           3.4821791     0.4712314    -0.6222830
C           4.5801728     1.2333814    -0.7225332
H           4.6778100     1.7881172    -1.6553282
