22
394_C8H12N2_1-0-10-18 (-165,) energy =    -421.5863122
C           1.1461468    -0.3711791     0.5155311
C           0.2752346    -1.5456692     0.9723089
H          -0.7380931    -1.2058947     1.2080243
H           0.6945097    -2.0043749     1.8768506
H           0.2084856    -2.3143605     0.1945777
C           1.2267361     0.6848188     1.6325414
H           0.2265596     1.0725023     1.8590191
H           1.8618162     1.5309633     1.3565676
H           1.6367906     0.2414899     2.5479547
H           0.6818777     0.0859808    -0.3697398
N           2.4536598    -0.9174356     0.1156285
H           2.7002758    -1.7695393     0.6103768
C           5.9629888     1.1849449    -0.4987586
H           6.9198655     1.6754499    -0.6443206
C           4.7589461     1.8007630    -0.8542449
H           4.7560977     2.7932145    -1.2981747
C           3.5593740     1.1334593    -0.6499556
H           2.6153132     1.5785431    -0.9468044
C           3.5953175    -0.1535316    -0.0702045
N           4.7501457    -0.7544306     0.2707413
C           5.8913066    -0.0935479     0.0491647
H           6.8004456    -0.6212360     0.3357212
22
394_C8H12N2_1-0-10-18 (-150,) energy =    -421.5832659
C           1.1125721    -0.3521044     0.4613731
C           0.3756215    -1.5435244     1.0836536
H          -0.6324703    -1.2536512     1.3964227
H           0.9143220    -1.9070606     1.9674075
H           0.2842670    -2.3699625     0.3692207
C           1.2465341     0.7629008     1.5124401
H           0.2507023     1.0667912     1.8551437
H           1.7523380     1.6510022     1.1264794
H           1.8128811     0.4053028     2.3805632
H           0.5171848     0.0299816    -0.3804558
N           2.4003418    -0.8552034    -0.0637346
H           2.6376274    -1.7672246     0.3154777
C           5.9873185     1.1823619    -0.4102065
H           6.9615912     1.6538862    -0.4872005
C           4.8151181     1.8530941    -0.7729521
H           4.8559830     2.8695108    -1.1566841
C           3.5925380     1.2061446    -0.6610374
H           2.6744619     1.6878779    -0.9809484
C           3.5700920    -0.1120710    -0.1564181
N           4.6952497    -0.7675574     0.1825911
C           5.8618032    -0.1277910     0.0449921
H           6.7454582    -0.7006077     0.3244003
22
394_C8H12N2_1-0-10-18 (-135,) energy =    -421.5801623
C           1.0544554    -0.3832868     0.4329853
C           0.4902644    -1.5835405     1.2047198
H          -0.5083530    -1.3586509     1.5936460
H           1.1408844    -1.8344641     2.0508803
H           0.4054602    -2.4665335     0.5595280
C           1.1733346     0.8120938     1.3901147
H           0.1891327     1.0228650     1.8233830
H           1.5196688     1.7241277     0.8998172
H           1.8662708     0.5864437     2.2089779
H           0.3454088    -0.1165748    -0.3644770
N           2.3298445    -0.8094407    -0.1914299
H           2.5534131    -1.7726632     0.0394960
C           5.9911001     1.1269481    -0.3116412
H           6.9822713     1.5682086    -0.3318264
C           4.8502953     1.8641826    -0.6436214
H           4.9342705     2.9043151    -0.9487918
C           3.6047207     1.2531053    -0.6107585
H           2.7148642     1.7866743    -0.9258378
C           3.5235578    -0.0969030    -0.2059990
N           4.6208632    -0.8168883     0.0946174
C           5.8116207    -0.2114420     0.0282958
H           6.6694132    -0.8380929     0.2703250
22
394_C8H12N2_1-0-10-18 (-120,) energy =    -421.5791889
C           1.1814128    -0.7448673     0.4270658
C           0.6811658    -1.2745649     1.7790661
H          -0.4041850    -1.1471393     1.8725377
H           1.1626521    -0.7417727     2.6077314
H           0.9148399    -2.3387133     1.8856669
C           0.7967026     0.7211450     0.1986370
H          -0.2955561     0.7952461     0.1592117
H           1.1982908     1.0986957    -0.7469962
H           1.1382362     1.3800667     1.0017691
H           0.6637229    -1.3191401    -0.3540747
N           2.6171417    -1.0670258     0.2458310
H           2.7540044    -1.8517454    -0.3817304
C           5.8967155     1.3876353    -0.3726765
H           6.7830082     1.9775539    -0.5822484
C           4.9800287     1.7611705     0.6146427
H           5.1453092     2.6545493     1.2118736
C           3.8656563     0.9696682     0.8549235
H           3.1795727     1.2097469     1.6583027
C           3.6701327    -0.1822623     0.0619874
N           4.5600266    -0.5551734    -0.8788878
C           5.6401085     0.2093971    -1.0691261
H           6.3340981    -0.1422269    -1.8320082
22
394_C8H12N2_1-0-10-18 (-105,) energy =    -421.5812062
C           1.1564571    -0.7637031     0.4377209
C           0.7936921    -1.1193800     1.8875969
H          -0.2779140    -0.9718551     2.0678738
H           1.3445479    -0.4953904     2.6017208
H           1.0424652    -2.1643471     2.0958151
C           0.7513126     0.6658453     0.0526756
H          -0.3338258     0.7752936     0.1577978
H           1.0175391     0.8816120    -0.9874347
H           1.2223019     1.4233293     0.6851896
H           0.5685278    -1.4345449    -0.2020463
N           2.5617642    -1.1239882     0.1365743
H           2.6373800    -1.8021738    -0.6136205
C           5.8528113     1.3548271    -0.2858925
H           6.7405559     1.9571465    -0.4488667
C           4.9569874     1.6296512     0.7518502
H           5.1394865     2.4558358     1.4346243
C           3.8387796     0.8263289     0.9259356
H           3.1612803     0.9904629     1.7562555
C           3.6231293    -0.2366800     0.0219483
N           4.4887417    -0.5131819    -0.9717376
C           5.5708816     0.2615841    -1.1011030
H           6.2453387    -0.0085151    -1.9130617
22
394_C8H12N2_1-0-10-18 (-90,) energy =    -421.5830662
C           1.1212852    -0.7820791     0.4070049
C           0.9154110    -1.0419474     1.9079697
H          -0.1441331    -0.9397224     2.1704361
H           1.4795515    -0.3373458     2.5290671
H           1.2429687    -2.0535439     2.1658190
C           0.6356314     0.6088548    -0.0316318
H          -0.4217966     0.7338551     0.2275135
H           0.7397730     0.7315258    -1.1150060
H           1.1955223     1.4142067     0.4527490
H           0.4992128    -1.5170402    -0.1187411
N           2.4913466    -1.1135857    -0.0274120
H           2.5292941    -1.7124407    -0.8441465
C           5.8768917     1.2636645    -0.2032716
H           6.7909465     1.8392227    -0.3056805
C           4.9526618     1.5233963     0.8124042
H           5.1357759     2.3134354     1.5365941
C           3.7980716     0.7586539     0.9086065
H           3.0907032     0.9275663     1.7115392
C           3.5813450    -0.2591311    -0.0463227
N           4.4709599    -0.5152037    -1.0260325
C           5.5818137     0.2250760    -1.0832602
H           6.2710289    -0.0271481    -1.8886898
22
394_C8H12N2_1-0-10-18 (-75,) energy =    -421.5835658
C           1.1042785    -0.7721101     0.3802239
C           1.0570426    -1.0165872     1.8982836
H           0.0177070    -1.0090812     2.2461936
H           1.5982854    -0.2511125     2.4626590
H           1.4975679    -1.9886154     2.1408018
C           0.4913717     0.5824788    -0.0184943
H          -0.5347807     0.6611274     0.3588385
H           0.4650294     0.6874217    -1.1082967
H           1.0625930     1.4238666     0.3857395
H           0.4851186    -1.5527421    -0.0779259
N           2.4344410    -1.0035935    -0.1922359
H           2.4716040    -1.6014225    -1.0074816
C           5.9456834     1.1823652    -0.1135662
H           6.8954782     1.7053569    -0.1515054
C           4.9638830     1.5016511     0.8275993
H           5.1334758     2.2919913     1.5548575
C           3.7621449     0.8061428     0.8427082
H           3.0031143     1.0427148     1.5771985
C           3.5627683    -0.2159546    -0.1127684
N           4.5066440    -0.5243395    -1.0276292
C           5.6542130     0.1571663    -1.0110048
H           6.3817486    -0.1350434    -1.7679714
22
394_C8H12N2_1-0-10-18 (-60,) energy =    -421.5835022
C           1.0894437    -0.7232321     0.3236818
C           1.2184165    -1.0741125     1.8172029
H           0.2302461    -1.0873260     2.2914246
H           1.8384696    -0.3511051     2.3562506
H           1.6726167    -2.0627804     1.9400909
C           0.3503419     0.6052328     0.0863676
H          -0.6506118     0.5613840     0.5306963
H           0.2457313     0.7954047    -0.9864038
H           0.8715519     1.4591028     0.5294535
H           0.4725226    -1.5059256    -0.1342730
N           2.3568678    -0.8106097    -0.4031081
H           2.4838723    -1.6045690    -1.0156528
C           6.0058206     1.0931401    -0.0142484
H           6.9920370     1.5430478     0.0296544
C           4.9416296     1.5732345     0.7528390
H           5.0799360     2.4204890     1.4202363
C           3.6941471     0.9695202     0.6673054
H           2.8668107     1.3409249     1.2581574
C           3.5362545    -0.1309233    -0.2059496
N           4.5639229    -0.6016265    -0.9457271
C           5.7491993     0.0028147    -0.8434078
H           6.5420422    -0.4158099    -1.4631026
22
394_C8H12N2_1-0-10-18 (-45,) energy =    -421.5833989
C           1.0919027    -0.6998416     0.2900676
C           1.3744008    -1.0503123     1.7611220
H           0.4316181    -1.1692826     2.3072299
H           1.9562670    -0.2722584     2.2640495
H           1.9338024    -1.9890763     1.8354887
C           0.2436906     0.5751010     0.1471986
H          -0.7129594     0.4537116     0.6685445
H           0.0414540     0.7809417    -0.9083694
H           0.7417855     1.4528452     0.5716845
H           0.4972793    -1.5191541    -0.1313998
N           2.2939209    -0.6654910    -0.5585434
H           2.4443182    -1.5001269    -1.1123973
C           6.0358949     0.9859786     0.0826100
H           7.0451212     1.3685371     0.1936162
C           4.9494489     1.5679909     0.7406627
H           5.0925381     2.4331324     1.3835142
C           3.6739093     1.0475831     0.5670715
H           2.8233819     1.5090799     1.0529848
C           3.5125219    -0.0784731    -0.2704426
N           4.5585091    -0.6441963    -0.9071416
C           5.7710103    -0.1126864    -0.7319657
H           6.5789942    -0.6038231    -1.2736269
22
394_C8H12N2_1-0-10-18 (-30,) energy =    -421.5820839
C           1.1003836    -0.6928643     0.2746755
C           1.4784525    -0.9684082     1.7384842
H           0.5767000    -1.2148219     2.3102641
H           1.9482643    -0.1043910     2.2159128
H           2.1716416    -1.8132742     1.8136488
C           0.1237855     0.4890399     0.1568315
H          -0.7817244     0.3036508     0.7467628
H          -0.1654075     0.6442020    -0.8871289
H           0.5759251     1.4187013     0.5208804
H           0.5807996    -1.5813169    -0.1034930
N           2.2515613    -0.5248454    -0.6394266
H           2.3870850    -1.3192373    -1.2549834
C           6.0568926     0.9045508     0.1571017
H           7.0800420     1.2311566     0.3116497
C           4.9794236     1.5355498     0.7854362
H           5.1440597     2.3856954     1.4428803
C           3.6867352     1.0868637     0.5522263
H           2.8375846     1.5949937     0.9941862
C           3.4999707    -0.0222881    -0.3014656
N           4.5341766    -0.6278128    -0.9166552
C           5.7661309    -0.1603247    -0.6921209
H           6.5663621    -0.6781933    -1.2199686
22
394_C8H12N2_1-0-10-18 (-15,) energy =    -421.5800218
C           1.1403525    -0.6644982     0.2884267
C           1.5241859    -0.8207155     1.7659676
H           0.6581269    -1.1979935     2.3208868
H           1.8207737     0.1256666     2.2253003
H           2.3466076    -1.5324267     1.8936428
C           0.0223669     0.3759193     0.1130868
H          -0.8579703     0.1112532     0.7113395
H          -0.2794366     0.4455731    -0.9367752
H           0.3638318     1.3686621     0.4293216
H           0.7487518    -1.6332347    -0.0467797
N           2.2674386    -0.3686135    -0.6301027
H           2.3692063    -1.0784426    -1.3474794
C           6.1324676     0.8601107     0.2168146
H           7.1683598     1.1373414     0.3827463
C           5.0837957     1.4938276     0.8902333
H           5.2850580     2.2987444     1.5928516
C           3.7737039     1.1111864     0.6384616
H           2.9446321     1.6323095     1.1030670
C           3.5396765     0.0593207    -0.2738112
N           4.5454573    -0.5425537    -0.9374660
C           5.7961348    -0.1351343    -0.6972428
H           6.5722350    -0.6451199    -1.2670968
22
394_C8H12N2_1-0-10-18 (0,) energy =    -421.5786540
C           1.1319766    -0.6480840     0.3231894
C           1.4308314    -0.6214298     1.8256884
H           0.6061674    -1.1138882     2.3522121
H           1.5041749     0.3960862     2.2207265
H           2.3551614    -1.1541185     2.0688786
C          -0.0948944     0.2128139    -0.0137169
H          -0.9733163    -0.1166460     0.5545695
H          -0.3340720     0.1502445    -1.0807055
H           0.0989543     1.2648527     0.2248364
H           0.8864421    -1.6912209     0.0756115
N           2.2599276    -0.2814560    -0.5615492
H           2.2929485    -0.8585082    -1.3947507
C           6.2023642     0.7737120     0.1547336
H           7.2541660     1.0113566     0.2756097
C           5.2221131     1.3236825     0.9856031
H           5.4942987     2.0226142     1.7727639
C           3.8869513     1.0000943     0.7878545
H           3.1143629     1.4670126     1.3851352
C           3.5563339     0.0854655    -0.2363753
N           4.4981657    -0.4340987    -1.0506019
C           5.7724299    -0.0816040    -0.8566124
H           6.4898359    -0.5200284    -1.5498016
22
394_C8H12N2_1-0-10-18 (15,) energy =    -421.5807709
C           1.1999126    -0.5422273     0.6826595
C           1.3467152     0.5780037     1.7204953
H           0.4553731     0.5951158     2.3578572
H           1.4370455     1.5571166     1.2345104
H           2.2153704     0.4444221     2.3677630
C          -0.0752694    -0.3667123    -0.1471020
H          -0.9597659    -0.3842692     0.4979202
H          -0.1782700    -1.1744065    -0.8811566
H          -0.0622987     0.5900960    -0.6839437
H           1.1000309    -1.4867617     1.2401390
N           2.3399534    -0.6909242    -0.2548195
H           2.0527934    -0.5205730    -1.2143534
C           6.1556988     0.9050419    -0.0017963
H           7.1519405     1.3351858    -0.0079614
C           5.6358540     0.2692680     1.1299098
H           6.2317324     0.1768849     2.0345776
C           4.3587721    -0.2721667     1.0861093
H           3.9588067    -0.8239400     1.9298183
C           3.6051588    -0.1336369    -0.0994365
N           4.1079590     0.4601286    -1.1977981
C           5.3512026     0.9499411    -1.1375138
H           5.7172252     1.4118245    -2.0538691
22
394_C8H12N2_1-0-10-18 (30,) energy =    -421.5839924
C           1.2413034    -0.4858213     0.6783418
C           1.3255229     0.7012904     1.6495134
H           0.5038724     0.6439121     2.3727783
H           1.2401920     1.6536161     1.1115161
H           2.2642970     0.7158266     2.2075331
C          -0.0953382    -0.5173723    -0.0654424
H          -0.9270217    -0.6005231     0.6411805
H          -0.1402901    -1.3721192    -0.7493106
H          -0.2384208     0.4013857    -0.6489195
H           1.3026778    -1.4048204     1.2818146
N           2.3220936    -0.5457599    -0.3291136
H           2.0080271    -0.2324141    -1.2436137
C           6.2124352     0.8206810     0.0448161
H           7.2307833     1.1944771     0.0719100
C           5.6487056     0.1424857     1.1300122
H           6.2297341    -0.0380557     2.0310142
C           4.3430239    -0.3202178     1.0459387
H           3.8986167    -0.8886854     1.8563644
C           3.6123835    -0.0680564    -0.1352939
N           4.1522182     0.5738972    -1.1872500
C           5.4189768     0.9914448    -1.0868948
H           5.8153050     1.4992473    -1.9655663
22
394_C8H12N2_1-0-10-18 (45,) energy =    -421.5869495
C           1.2490382    -0.4285408     0.6597090
C           1.2327888     0.7872570     1.6007768
H           0.4862769     0.6443014     2.3908420
H           0.9752329     1.7004796     1.0500195
H           2.2042330     0.9451767     2.0767196
C          -0.1064638    -0.6483422    -0.0145923
H          -0.8895425    -0.7991993     0.7350504
H          -0.0782393    -1.5261773    -0.6685241
H          -0.3865208     0.2241694    -0.6194966
H           1.4635780    -1.3194998     1.2686038
N           2.2757409    -0.3642100    -0.3921875
H           1.9449431     0.0607689    -1.2537867
C           6.2410497     0.7271979     0.0554602
H           7.2815019     1.0315985     0.1020849
C           5.6264569     0.0440763     1.1091864
H           6.1872313    -0.2073282     2.0060597
C           4.2926634    -0.3253401     1.0040731
H           3.8038711    -0.8808460     1.7976757
C           3.5905546     0.0161940    -0.1722952
N           4.1758708     0.6716007    -1.1917387
C           5.4651881     1.0031180    -1.0680580
H           5.8972355     1.5273335    -1.9199301
22
394_C8H12N2_1-0-10-18 (60,) energy =    -421.5886240
C           1.2659494    -0.3565872     0.6575850
C           1.1225133     0.8522468     1.5982484
H           0.4284860     0.6270442     2.4167014
H           0.7348202     1.7210129     1.0521624
H           2.0861776     1.1314700     2.0353720
C          -0.0687854    -0.7387188     0.0127158
H          -0.8182106    -0.9600674     0.7793905
H           0.0457450    -1.6182526    -0.6287531
H          -0.4549689     0.0861744    -0.6005915
H           1.6069723    -1.2167566     1.2498259
N           2.2495137    -0.1486909    -0.4066386
H           1.9069225     0.3534616    -1.2192798
C           6.2891146     0.6236671     0.0149580
H           7.3501567     0.8471288     0.0537486
C           5.6378484    -0.0395312     1.0587725
H           6.1882426    -0.3535867     1.9422953
C           4.2778141    -0.3025735     0.9674453
H           3.7610632    -0.8267426     1.7640491
C           3.5888351     0.1160534    -0.1923937
N           4.2082469     0.7613782    -1.1998003
C           5.5188685     0.9943388    -1.0853671
H           5.9759793     1.5152665    -1.9262292
22
394_C8H12N2_1-0-10-18 (75,) energy =    -421.5887510
C           1.3205542    -0.3113011     0.6606648
C           1.0193909     0.8631551     1.6083938
H           0.3424993     0.5550116     2.4142761
H           0.5444485     1.6857136     1.0601096
H           1.9395125     1.2466042     2.0617488
C           0.0453041    -0.8432659    -0.0022606
H          -0.6863069    -1.1460319     0.7541021
H           0.2667671    -1.7045204    -0.6402684
H          -0.4222487    -0.0678450    -0.6233202
H           1.7603160    -1.1305014     1.2427961
N           2.2780380     0.0406018    -0.3808635
H           1.9235253     0.5487919    -1.1824496
C           6.3722916     0.5160704    -0.1090265
H           7.4471158     0.6639592    -0.1107162
C           5.7141588    -0.0983695     0.9597684
H           6.2730441    -0.4462432     1.8251750
C           4.3363168    -0.2643728     0.9222773
H           3.8161249    -0.7366855     1.7481794
C           3.6356053     0.1952860    -0.2157885
N           4.2622196     0.7998192    -1.2460037
C           5.5880693     0.9433346    -1.1788671
H           6.0482839     1.4352771    -2.0355054
22
394_C8H12N2_1-0-10-18 (90,) energy =    -421.5881841
C           1.3245994    -0.2571761     0.6781392
C           0.9012109     0.7608622     1.7507161
H           0.2387220     0.2972944     2.4916957
H           0.3696774     1.6014866     1.2899225
H           1.7738029     1.1638795     2.2752505
C           0.1125181    -0.8067368    -0.0821555
H          -0.6074397    -1.2545542     0.6104473
H           0.4148702    -1.5694774    -0.8075162
H          -0.4035025    -0.0021970    -0.6221931
H           1.8231887    -1.1019483     1.1735049
N           2.2642299     0.3195781    -0.2750539
H           1.9248805     0.5721517    -1.1937427
C           6.3885031     0.4011898    -0.1611782
H           7.4717088     0.4470522    -0.2018210
C           5.7108815    -0.0217562     0.9856883
H           6.2624933    -0.3157467     1.8754310
C           4.3232721    -0.0611741     0.9959734
H           3.7863437    -0.3706673     1.8857591
C           3.6329794     0.3244445    -0.1762124
N           4.2791206     0.7374325    -1.2862256
C           5.6136677     0.7705133    -1.2592189
H           6.0903978     1.1120500    -2.1777848
22
394_C8H12N2_1-0-10-18 (105,) energy =    -421.5876486
C           1.3330369    -0.1828573     0.7277636
C           0.7442139     0.7846007     1.7669839
H           0.0834137     0.2574984     2.4658022
H           0.1629816     1.5711519     1.2715965
H           1.5399080     1.2690594     2.3425504
C           0.2305726    -0.8537469    -0.1022488
H          -0.4832255    -1.3722794     0.5466913
H           0.6531034    -1.5813025    -0.8031471
H          -0.3297416    -0.1058679    -0.6785453
H           1.8849579    -0.9716362     1.2537717
N           2.2714044     0.4958043    -0.1626277
H           1.9253644     0.7689481    -1.0741828
C           6.3954006     0.2925471    -0.2335309
H           7.4764756     0.2658613    -0.3210790
C           5.7412742    -0.1000043     0.9377441
H           6.3100006    -0.4392774     1.8001545
C           4.3560910    -0.0459073     1.0087834
H           3.8390308    -0.3181416     1.9224722
C           3.6429260     0.3965603    -0.1286102
N           4.2669194     0.7838326    -1.2597744
C           5.6011266     0.7315051    -1.2909704
H           6.0594395     1.0572753    -2.2244817
22
394_C8H12N2_1-0-10-18 (120,) energy =    -421.5872660
C           1.2871849    -0.2122336     0.7873522
C           0.5366964    -1.5198532     0.4985640
H          -0.5235707    -1.3263510     0.3017891
H           0.5941617    -2.1989578     1.3594638
H           0.9628465    -2.0323708    -0.3700964
C           0.6626758     0.5619100     1.9579632
H          -0.3877221     0.8029971     1.7551247
H           1.2053911     1.4955474     2.1376852
H           0.7041977    -0.0325504     2.8785498
H           1.2278879     0.4107171    -0.1120769
N           2.7021803    -0.4885564     1.0315865
H           2.9195932    -1.3768672     1.4681194
C           6.0203921     0.8487666    -1.0365045
H           6.9297100     1.1422485    -1.5504428
C           4.8440067     1.5976751    -1.1343265
H           4.8162652     2.5071723    -1.7296029
C           3.7044892     1.1883416    -0.4561277
H           2.7974103     1.7814891    -0.4975371
C           3.7670224     0.0007831     0.3080686
N           4.9000424    -0.7226723     0.4130328
C           5.9835629    -0.2934861    -0.2398649
H           6.8746996    -0.9091072    -0.1198200
22
394_C8H12N2_1-0-10-18 (135,) energy =    -421.5878327
C           1.2829277    -0.2873646     0.7220387
C           0.4538194    -1.5729622     0.6185075
H          -0.6041767    -1.3398230     0.4589909
H           0.5273056    -2.1586135     1.5443142
H           0.7993502    -2.1975188    -0.2119759
C           0.7621729     0.6429196     1.8289389
H          -0.2762668     0.9390824     1.6372307
H           1.3726965     1.5495454     1.8946503
H           0.8032761     0.1408159     2.8026063
H           1.2033853     0.2376129    -0.2392619
N           2.6888495    -0.6289517     0.9244249
H           2.8961618    -1.5553322     1.2762016
C           6.0178965     0.9369185    -0.9510944
H           6.9305533     1.2886421    -1.4206490
C           4.8305660     1.6723785    -1.0044782
H           4.7971234     2.6289080    -1.5204519
C           3.6866682     1.1867077    -0.3858158
H           2.7669092     1.7612454    -0.3960637
C           3.7596733    -0.0608136     0.2747465
N           4.9027308    -0.7738060     0.3358624
C           5.9879937    -0.2726380    -0.2596691
H           6.8874214    -0.8828927    -0.1808142
22
394_C8H12N2_1-0-10-18 (150,) energy =    -421.5883195
C           1.2716487    -0.3050349     0.6538220
C           0.3401527    -1.5223324     0.6338732
H          -0.7080775    -1.2066288     0.6085906
H           0.4793819    -2.1343401     1.5348557
H           0.5372579    -2.1504938    -0.2405257
C           0.9614147     0.6399997     1.8274439
H          -0.0648375     1.0216426     1.7649507
H           1.6463873     1.4943428     1.8304228
H           1.0734457     0.1150319     2.7836769
H           1.1169881     0.2431757    -0.2842069
N           2.6533372    -0.7613243     0.6616241
H           2.8852726    -1.5927500     1.1894582
C           6.0495766     0.9865260    -0.9014514
H           6.9808855     1.3840909    -1.2908723
C           4.8318127     1.6479566    -1.0833909
H           4.7915121     2.5901738    -1.6246762
C           3.6637995     1.1063126    -0.5647429
H           2.7169083     1.6200702    -0.6881630
C           3.7453482    -0.1213404     0.1325279
N           4.9186411    -0.7606065     0.3219026
C           6.0233948    -0.2093127    -0.1863245
H           6.9451786    -0.7624962    -0.0073262
22
394_C8H12N2_1-0-10-18 (165,) energy =    -421.5888427
C           1.2465434    -0.3533082     0.6209564
C           0.2717094    -1.5310703     0.7177467
H          -0.7615125    -1.1735247     0.7767503
H           0.4683355    -2.1258764     1.6195396
H           0.3661241    -2.1879422    -0.1525760
C           1.0965051     0.6124939     1.8093557
H           0.0885045     1.0432088     1.8400624
H           1.8175356     1.4336424     1.7411676
H           1.2712865     0.0866157     2.7558664
H           1.0174090     0.1913848    -0.3038298
N           2.6013971    -0.8788454     0.4865149
H           2.8509298    -1.6509581     1.0939734
C           6.0236765     1.0927494    -0.7264652
H           6.9617404     1.5485485    -1.0255071
C           4.7917766     1.6881855    -1.0108962
H           4.7460096     2.6335518    -1.5461115
C           3.6151404     1.0720923    -0.6065861
H           2.6536241     1.5245832    -0.8224542
C           3.7043117    -0.1567080     0.0853654
N           4.8894857    -0.7319128     0.3728582
C           6.0027385    -0.1151048    -0.0317352
H           6.9347492    -0.6198323     0.2215995
22
394_C8H12N2_1-0-10-18 (180,) energy =    -421.5883348
C           1.1866607    -0.3577670     0.5763470
C           0.2309808    -1.5217519     0.8543864
H          -0.7897961    -1.1559283     1.0040540
H           0.5292975    -2.0574278     1.7650956
H           0.2274994    -2.2339243     0.0227887
C           1.1751507     0.6521467     1.7377656
H           0.1743611     1.0809370     1.8671940
H           1.8771305     1.4731841     1.5631189
H           1.4588709     0.1590863     2.6754817
H           0.8488404     0.1507885    -0.3368403
N           2.5148292    -0.9151160     0.3058720
H           2.7668741    -1.7118161     0.8820689
C           5.9665493     1.1689530    -0.6102783
H           6.9108966     1.6543613    -0.8335997
C           4.7411448     1.7578839    -0.9345409
H           4.7075411     2.7259665    -1.4283204
C           3.5572663     1.1006874    -0.6281369
H           2.5979311     1.5361496    -0.8863739
C           3.6327040    -0.1554581     0.0127262
N           4.8094573    -0.7274477     0.3324861
C           5.9319171    -0.0742903     0.0178428
H           6.8585030    -0.5776698     0.2924027
