16
161_C5H9NO_2-0-11-8 (-165,) energy =    -325.9048516
N           1.4380666    -0.9805667    -0.6314894
H           1.6238283    -0.4421103    -1.4653718
C           2.4081784    -1.0715618     0.3311009
C           3.6522830    -0.2296241     0.0824566
H           3.7859734     0.4561797     0.9247066
H           3.6196105     0.3518776    -0.8447764
H           4.5255490    -0.8887800     0.0580559
O           2.2906945    -1.7786941     1.3238885
C          -0.6240010    -1.8873493    -1.8041675
H          -1.0603389    -2.8547246    -2.0369699
H          -0.3432861    -1.3116767    -2.6843418
C           0.2373969    -1.7681940    -0.5789620
H           0.3704379    -2.6390655     0.0534006
C          -1.1248292    -1.1182476    -0.5978753
H          -1.1619631    -0.0347518    -0.6739303
H          -1.9106116    -1.5533471     0.0136733
16
161_C5H9NO_2-0-11-8 (-150,) energy =    -325.9046905
N           1.4162906    -0.9417150    -0.5667241
H           1.4997048    -0.2249686    -1.2734098
C           2.4600373    -1.1517040     0.2943338
C           3.6612994    -0.2385338     0.0919772
H           3.8474853     0.3081542     1.0215557
H           3.5426913     0.4812686    -0.7246224
H           4.5434322    -0.8556414    -0.1045316
O           2.4401959    -2.0109012     1.1672937
C          -0.5854972    -1.9695679    -1.7724968
H          -1.0229309    -2.9530909    -1.9215730
H          -0.2505122    -1.4937840    -2.6919244
C           0.2118715    -1.7223492    -0.5203418
H           0.3160404    -2.5254520     0.1997135
C          -1.1387607    -1.0730752    -0.6810889
H          -1.1669016    -0.0033903    -0.8756209
H          -1.9612197    -1.4337784    -0.0691523
16
161_C5H9NO_2-0-11-8 (-135,) energy =    -325.9047177
N           1.3616301    -0.6836578    -0.5365893
H           1.3905611     0.1578505    -1.0942690
C           2.4531783    -1.0188989     0.2190931
C           3.6370919    -0.0683335     0.1059636
H           3.8707745     0.3229076     1.1009717
H           3.4714137     0.7723961    -0.5757674
H           4.5100487    -0.6336140    -0.2344571
O           2.4839615    -2.0083916     0.9404927
C          -0.5536829    -1.8092764    -1.8141428
H          -1.0003415    -2.7957630    -1.9053590
H          -0.1385251    -1.4213230    -2.7412866
C           0.1537218    -1.4602761    -0.5288171
H           0.1933449    -2.2077253     0.2548679
C          -1.1657062    -0.8122677    -0.8491299
H          -1.1612131     0.2362850    -1.1402005
H          -2.0387004    -1.1023749    -0.2707420
16
161_C5H9NO_2-0-11-8 (-120,) energy =    -325.9049362
N           1.3230568    -0.6266746    -0.5010577
H           1.2653164     0.3303614    -0.8183735
C           2.4731760    -1.0534231     0.1091688
C           3.6286463    -0.0619050     0.0869250
H           3.9274640     0.1560608     1.1169631
H           3.3991374     0.8790405    -0.4238291
H           4.4844131    -0.5318904    -0.4073235
O           2.5714871    -2.1544536     0.6353682
C          -0.5240333    -1.8893774    -1.7531774
H          -0.9874502    -2.8721852    -1.7571628
H          -0.0413464    -1.6139037    -2.6867849
C           0.1170198    -1.4088468    -0.4729687
H           0.0925694    -2.0755137     0.3825052
C          -1.1661853    -0.7834417    -0.9431856
H          -1.1247826     0.2256655    -1.3491989
H          -2.0755342    -0.9927835    -0.3868340
16
161_C5H9NO_2-0-11-8 (-105,) energy =    -325.9054748
N           1.3302783    -0.7299475    -0.4373560
H           1.2280509     0.2731695    -0.5068706
C           2.5389690    -1.2326436    -0.0239956
C           3.6847643    -0.2298154     0.0113488
H           3.9927911    -0.0756190     1.0510763
H           3.4378589     0.7404329    -0.4317859
H           4.5390221    -0.6570415    -0.5210623
O           2.6864946    -2.4039885     0.2954948
C          -0.4640187    -2.1242267    -1.6027477
H          -0.9285575    -3.1028886    -1.5225836
H           0.0606117    -1.9439409    -2.5361336
C           0.1315726    -1.5203901    -0.3541198
H           0.0612518    -2.1048967     0.5595004
C          -1.1309250    -0.9446546    -0.9342031
H          -1.0671655     0.0185465    -1.4362456
H          -2.0598163    -1.0984744    -0.3926522
16
161_C5H9NO_2-0-11-8 (-90,) energy =    -325.9059239
N           1.2919858    -0.6756134    -0.3482024
H           1.1986768     0.3283968    -0.2746248
C           2.5226887    -1.2348049    -0.1022854
C           3.6821658    -0.2494560    -0.0268628
H           4.0703266    -0.2319392     0.9971902
H           3.4158766     0.7708946    -0.3212784
H           4.4874627    -0.6079049    -0.6739859
O           2.6784725    -2.4384120     0.0434218
C          -0.4005622    -2.1531225    -1.5368859
H          -0.8641180    -3.1286840    -1.4242153
H           0.1987835    -2.0343183    -2.4339359
C           0.0915976    -1.4631446    -0.2906319
H          -0.0599940    -1.9869918     0.6513922
C          -1.1229041    -0.9372296    -1.0083357
H          -1.0180655    -0.0093814    -1.5657777
H          -2.0909352    -1.0631899    -0.5321347
16
161_C5H9NO_2-0-11-8 (-75,) energy =    -325.9060084
N           1.2554458    -0.6464265    -0.2390997
H           1.1797215     0.3485681    -0.0775713
C           2.4972847    -1.2299235    -0.1608595
C           3.6649187    -0.2561978    -0.0551029
H           4.1349837    -0.3689771     0.9276566
H           3.3824807     0.7926412    -0.1927343
H           4.4128630    -0.5251364    -0.8061774
O           2.6601966    -2.4409424    -0.1775234
C          -0.3402741    -2.1786446    -1.4703637
H          -0.8102689    -3.1487067    -1.3401728
H           0.3357359    -2.1132719    -2.3164192
C           0.0463894    -1.4198426    -0.2298964
H          -0.1925742    -1.8882155     0.7243023
C          -1.1045394    -0.9384856    -1.0775425
H          -0.9504349    -0.0414179    -1.6718434
H          -2.1084462    -1.0434507    -0.6761711
16
161_C5H9NO_2-0-11-8 (-60,) energy =    -325.9056616
N           1.2304704    -0.6478516    -0.1277066
H           1.1755451     0.3375752     0.0896896
C           2.4734513    -1.2280567    -0.2130213
C           3.6442328    -0.2605976    -0.0782746
H           4.1933458    -0.4945752     0.8398314
H           3.3515563     0.7942253    -0.0544354
H           4.3283174    -0.4216357    -0.9162204
O           2.6424899    -2.4263551    -0.3827217
C          -0.3021352    -2.2061809    -1.4030568
H          -0.7974859    -3.1608415    -1.2549015
H           0.4389397    -2.2026866    -2.1944192
C           0.0030945    -1.3886194    -0.1793177
H          -0.3262816    -1.7981096     0.7755908
C          -1.0715074    -0.9358450    -1.1404628
H          -0.8516699    -0.0745859    -1.7658215
H          -2.1051545    -1.0026837    -0.8127309
16
161_C5H9NO_2-0-11-8 (-45,) energy =    -325.9048537
N           1.2463479    -0.6449104    -0.0541259
H           1.2086659     0.3373133     0.1808463
C           2.4852116    -1.2068768    -0.2515952
C           3.6530830    -0.2360268    -0.1073410
H           4.4075749    -0.6926550     0.5388253
H           3.3753234     0.7409697     0.3017778
H           4.1126672    -0.0859725    -1.0902326
O           2.6606722    -2.3829560    -0.5340356
C          -0.2388857    -2.2135366    -1.3910699
H          -0.7926816    -3.1327521    -1.2259621
H           0.5700834    -2.3007129    -2.1061764
C          -0.0069074    -1.3295658    -0.1987283
H          -0.4509461    -1.6563321     0.7415010
C          -0.9659086    -0.8963585    -1.2867033
H          -0.6440837    -0.0912023    -1.9417983
H          -2.0276606    -0.8933319    -1.0555671
16
161_C5H9NO_2-0-11-8 (-30,) energy =    -325.9037225
N           1.2468992    -0.6830403     0.0179952
H           1.2196848     0.2799362     0.3247218
C           2.4797016    -1.1890411    -0.3206903
C           3.6366565    -0.2156216    -0.1130953
H           4.4384696    -0.7382498     0.4151145
H           3.3688284     0.6869619     0.4460767
H           4.0297522     0.0820548    -1.0913056
O           2.6676336    -2.3154052    -0.7575285
C          -0.2538173    -2.2574916    -1.3265133
H          -0.8660617    -3.1326826    -1.1295075
H           0.5814271    -2.4350649    -1.9915801
C          -0.0296891    -1.3134706    -0.1801485
H          -0.5410642    -1.5549728     0.7512641
C          -0.9119824    -0.9003129    -1.3416065
H          -0.5123916    -0.1571139    -2.0262974
H          -1.9819760    -0.8254346    -1.1665059
16
161_C5H9NO_2-0-11-8 (-15,) energy =    -325.9026177
N           1.2548294    -0.7108182     0.0483016
H           1.2403352     0.2135956     0.4578562
C           2.4749146    -1.1446670    -0.4118538
C           3.6306935    -0.1954004    -0.1060380
H           4.4622690    -0.7819021     0.2932072
H           3.3821387     0.6013102     0.6028400
H           3.9724157     0.2613615    -1.0413575
O           2.6623285    -2.1912197    -1.0172746
C          -0.2873021    -2.3038358    -1.2644184
H          -0.9626589    -3.1196215    -1.0218578
H           0.5569045    -2.5796310    -1.8820782
C          -0.0438818    -1.2877539    -0.1853599
H          -0.6021829    -1.4256122     0.7394961
C          -0.8594808    -0.9142628    -1.4084197
H          -0.3888161    -0.2535374    -2.1313444
H          -1.9285260    -0.7622439    -1.2840971
16
161_C5H9NO_2-0-11-8 (0,) energy =    -325.9019392
N           1.2623575    -0.7269108     0.0720446
H           1.2643664     0.1299893     0.6082155
C           2.4601816    -1.0761997    -0.4988751
C           3.6312476    -0.1874951    -0.0879436
H           4.4756670    -0.8302034     0.1743251
H           3.4151297     0.4794698     0.7531597
H           3.9367904     0.4189649    -0.9476315
O           2.6208577    -2.0079547    -1.2771108
C          -0.3160737    -2.3567644    -1.1830360
H          -1.0397231    -3.1145663    -0.8944913
H           0.5284000    -2.7154513    -1.7556413
C          -0.0514864    -1.2639801    -0.1855094
H          -0.6418108    -1.2976670     0.7279337
C          -0.8111164    -0.9562921    -1.4609718
H          -0.2832136    -0.3882161    -2.2219605
H          -1.8736392    -0.7392774    -1.3871011
16
161_C5H9NO_2-0-11-8 (15,) energy =    -325.9019599
N           1.2019536    -0.7228011     0.1691239
H           1.2319320    -0.0140912     0.8873766
C           2.3655362    -0.9585997    -0.5101336
C           3.5815084    -0.2132451     0.0312037
H           4.3325503    -0.9483455     0.3370283
H           3.3671189     0.4446099     0.8797882
H           4.0183138     0.3802331    -0.7776397
O           2.4614256    -1.7055883    -1.4776620
C          -0.3756263    -2.4199535    -1.0224163
H          -1.1300990    -3.1326134    -0.6987025
H           0.4703108    -2.8398603    -1.5490410
C          -0.1137115    -1.2516196    -0.1103685
H          -0.7333804    -1.1940929     0.7807445
C          -0.8167066    -1.0316385    -1.4317929
H          -0.2420226    -0.5541678    -2.2197361
H          -1.8734293    -0.7774631    -1.4173001
16
161_C5H9NO_2-0-11-8 (30,) energy =    -325.9025870
N           1.1401490    -0.6792286     0.2315557
H           1.2194851    -0.1759664     1.1021288
C           2.2679195    -0.8135562    -0.5253058
C           3.5257799    -0.1936731     0.0724726
H           4.2762992    -0.9798663     0.2012750
H           3.3681706     0.3050813     1.0343585
H           3.9327073     0.5303391    -0.6399810
O           2.2913169    -1.3841730    -1.6116180
C          -0.4286830    -2.4303314    -0.8959691
H          -1.2179098    -3.0953333    -0.5540166
H           0.4276817    -2.9159809    -1.3458880
C          -0.1778811    -1.1858029    -0.0834743
H          -0.8419210    -1.0239887     0.7606818
C          -0.7995273    -1.0714249    -1.4536673
H          -0.1700350    -0.6966068    -2.2528042
H          -1.8463508    -0.7848747    -1.5144271
16
161_C5H9NO_2-0-11-8 (45,) energy =    -325.9025652
N           1.1749991    -0.7215234     0.2198525
H           1.2930254    -0.3714316     1.1584455
C           2.2730544    -0.7413588    -0.5906729
C           3.5501710    -0.1945114     0.0367631
H           4.3118629    -0.9803370     0.0256466
H           3.4283296     0.1662223     1.0633319
H           3.9210331     0.6262269    -0.5848173
O           2.2585755    -1.1693958    -1.7407040
C          -0.4439046    -2.4545104    -0.8483283
H          -1.2698969    -3.0655675    -0.4935269
H           0.4071740    -3.0048191    -1.2335468
C          -0.1589206    -1.1632931    -0.1231493
H          -0.8437112    -0.9052945     0.6797200
C          -0.7319495    -1.1230324    -1.5155932
H          -0.0692877    -0.8390324    -2.3228608
H          -1.7634293    -0.7951920    -1.6181192
16
161_C5H9NO_2-0-11-8 (60,) energy =    -325.9019324
N           1.1775917    -0.7045717     0.1872340
H           1.3552774    -0.6122785     1.1767634
C           2.2585270    -0.5882045    -0.6434339
C           3.5533896    -0.1776972     0.0509315
H           4.3083266    -0.9498028    -0.1270545
H           3.4562257    -0.0176385     1.1297055
H           3.9174543     0.7451077    -0.4109682
O           2.2261332    -0.7881103    -1.8525185
C          -0.4891563    -2.4582389    -0.7561563
H          -1.3519613    -2.9994076    -0.3765553
H           0.3523178    -3.0818664    -1.0430144
C          -0.1668003    -1.1088912    -0.1540078
H          -0.8650926    -0.7382280     0.5922310
C          -0.6938015    -1.1915142    -1.5606032
H           0.0039020    -1.0051486    -2.3654025
H          -1.7079240    -0.8355333    -1.7236940
16
161_C5H9NO_2-0-11-8 (75,) energy =    -325.9020006
N           1.7767480    -1.5508864    -0.7167919
H           2.4661448    -1.8031938    -1.4117866
C           2.1277718    -0.5254709     0.1253972
C           3.5698866    -0.0512539    -0.0349922
H           3.5666213     0.9583468    -0.4600153
H           4.1881327    -0.6969278    -0.6673034
H           4.0231110     0.0147801     0.9576931
O           1.3837455    -0.0057907     0.9473500
C          -0.6056769    -1.4465101    -1.7146803
H          -1.1992883    -2.0367766    -2.4081057
H          -0.3928427    -0.4343161    -2.0474653
C           0.4803700    -2.1490451    -0.9216066
H           0.5623949    -3.2246278    -1.0645525
C          -0.7636659    -1.6639013    -0.2297085
H          -0.6613155    -0.8068683     0.4220070
H          -1.4592092    -2.4263691     0.1109331
16
161_C5H9NO_2-0-11-8 (90,) energy =    -325.9028583
N           1.7636189    -1.5337584    -0.7430411
H           2.3982896    -1.6693460    -1.5185087
C           2.1558325    -0.6148612     0.2009093
C           3.5497080    -0.0371522    -0.0309836
H           3.4548559     1.0190545    -0.3056699
H           4.1263020    -0.5511049    -0.8071269
H           4.1022922    -0.0801879     0.9113125
O           1.4790440    -0.2635156     1.1575277
C          -0.5886289    -1.5136789    -1.7696921
H          -1.1952716    -2.1611821    -2.3976624
H          -0.3423778    -0.5535646    -2.2149937
C           0.4747070    -2.1573195    -0.8959525
H           0.5349000    -3.2441735    -0.9227682
C          -0.7607177    -1.5646192    -0.2755034
H          -0.6371470    -0.6529639     0.2936952
H          -1.4805398    -2.2653203     0.1384465
16
161_C5H9NO_2-0-11-8 (105,) energy =    -325.9040988
N           1.7535307    -1.4906224    -0.7753267
H           2.3393559    -1.5453489    -1.5973581
C           2.1941329    -0.6905985     0.2523728
C           3.5467374    -0.0299507     0.0018840
H           3.4017393     1.0525439    -0.0800140
H           4.0604562    -0.3843301    -0.8978353
H           4.1861445    -0.2076937     0.8708893
O           1.5757758    -0.5009615     1.2897267
C          -0.5812376    -1.5940237    -1.7961642
H          -1.1948024    -2.3032357    -2.3455303
H          -0.3292157    -0.6924285    -2.3479642
C           0.4781080    -2.1471999    -0.8603420
H           0.5297825    -3.2310848    -0.7638582
C          -0.7492363    -1.4764305    -0.3062941
H          -0.6156442    -0.5076554     0.1579732
H          -1.4763358    -2.1137815     0.1884044
16
161_C5H9NO_2-0-11-8 (120,) energy =    -325.9051949
N           1.7026012    -1.4158576    -0.8026634
H           2.2521304    -1.4398878    -1.6504288
C           2.2058205    -0.7219859     0.2717609
C           3.5489517    -0.0422890     0.0252545
H           3.4710636     1.0053408     0.3295630
H           3.8901974    -0.0875413    -1.0141627
H           4.3045606    -0.5113353     0.6640637
O           1.6403286    -0.6499925     1.3527107
C          -0.6094666    -1.7150230    -1.7985583
H          -1.2067997    -2.4990598    -2.2560258
H          -0.3776437    -0.8829803    -2.4582196
C           0.4565384    -2.1277743    -0.8050512
H           0.5356851    -3.1897163    -0.5739033
C          -0.7854137    -1.4210091    -0.3334712
H          -0.6699823    -0.3990985     0.0077545
H          -1.5027308    -2.0047511     0.2354925
16
161_C5H9NO_2-0-11-8 (135,) energy =    -325.9058466
N           1.6608077    -1.3088821    -0.8238865
H           2.1850559    -1.3107559    -1.6880107
C           2.2435191    -0.7584402     0.2926111
C           3.5737417    -0.0560464     0.0452740
H           3.5245225     0.9472045     0.4779419
H           3.8453419     0.0249854    -1.0123129
H           4.3652751    -0.5992189     0.5721554
O           1.7404634    -0.8190280     1.4045612
C          -0.6133001    -1.7871347    -1.8135947
H          -1.1716253    -2.6292361    -2.2127903
H          -0.4075644    -1.0009790    -2.5353863
C           0.4475034    -2.0729319    -0.7764920
H           0.5643540    -3.1068557    -0.4526024
C          -0.8273660    -1.3803580    -0.3784450
H          -0.7563769    -0.3271717    -0.1296585
H          -1.5330190    -1.9402705     0.2275829
16
161_C5H9NO_2-0-11-8 (150,) energy =    -325.9060164
N           1.6142782    -1.2010586    -0.8163534
H           2.0942024    -1.1579371    -1.7051064
C           2.2870126    -0.7901198     0.3094087
C           3.6032803    -0.0667621     0.0520046
H           3.6008335     0.8724697     0.6122171
H           3.7916824     0.1493297    -1.0046432
H           4.4265974    -0.6754929     0.4406036
O           1.8612047    -0.9848155     1.4382743
C          -0.5987238    -1.8561873    -1.8254493
H          -1.1065940    -2.7506572    -2.1745326
H          -0.4034155    -1.1209225    -2.6021442
C           0.4299977    -2.0088727    -0.7348860
H           0.5821444    -3.0036130    -0.3181042
C          -0.8874955    -1.3447047    -0.4351970
H          -0.8714798    -0.2715605    -0.2754257
H          -1.5935365    -1.8864395     0.1868806
16
161_C5H9NO_2-0-11-8 (165,) energy =    -325.9058014
N           1.5738243    -1.1016551    -0.7706165
H           1.9863978    -0.9744312    -1.6847044
C           2.3423014    -0.8264922     0.3340619
C           3.6395080    -0.0779411     0.0558371
H           3.6940556     0.7861479     0.7238945
H           3.7395406     0.2654454    -0.9789455
H           4.4865301    -0.7293727     0.2960154
O           2.0083845    -1.1569225     1.4628040
C          -0.5643430    -1.9209283    -1.8197680
H          -1.0152792    -2.8616182    -2.1221371
H          -0.3654594    -1.2388308    -2.6433283
C           0.4100602    -1.9397151    -0.6741121
H           0.5858020    -2.8867569    -0.1680881
C          -0.9490115    -1.3144010    -0.4898859
H          -0.9877969    -0.2317171    -0.4217013
H          -1.6658185    -1.8370227     0.1366486
16
161_C5H9NO_2-0-11-8 (180,) energy =    -325.9052991
N           1.5299481    -1.0297899    -0.7104188
H           1.8474305    -0.7630029    -1.6318119
C           2.3955835    -0.8905665     0.3445660
C           3.6654057    -0.1042201     0.0468354
H           3.7775663     0.6771388     0.8038648
H           3.6789925     0.3581068    -0.9455299
H           4.5283278    -0.7722434     0.1386685
O           2.1666499    -1.3659369     1.4483976
C          -0.5341595    -1.9842593    -1.8102466
H          -0.9402945    -2.9599717    -2.0609800
H          -0.3124631    -1.3643374    -2.6767799
C           0.3721123    -1.8776227    -0.6167572
H           0.5511293    -2.7698348    -0.0233850
C          -1.0134033    -1.2827118    -0.5576440
H          -1.0883059    -0.1996822    -0.5867974
H          -1.7530979    -1.7737670     0.0683043
