24
432_C12H11N_1-0-19-17 (-165,) energy =    -518.6485716
C           2.4552016    -1.3777820    -0.4810961
C           1.1104615    -0.9423489    -0.2996095
N           0.7374305     0.3978907    -0.3455024
H          -0.1213687     0.6573923     0.1174539
H           1.4531477     1.1045780    -0.3317689
C           0.0765167    -1.8951955    -0.2208534
H          -0.9439498    -1.5390621    -0.0951056
C           0.3276622    -3.2542219    -0.3382944
H          -0.4948671    -3.9614846    -0.2705661
C           1.6338524    -3.6994254    -0.5496297
H           1.8535202    -4.7590517    -0.6396833
C           2.6636866    -2.7671412    -0.5993703
H           3.6814060    -3.1337383    -0.6771941
C           6.0261634     0.9794296     0.2390081
H           6.9298762     1.5481582     0.4393591
C           6.0684973    -0.1669873    -0.5555622
H           7.0114030    -0.5027251    -0.9796440
C           4.9089059    -0.8942251    -0.8110575
H           4.9762620    -1.7620556    -1.4593368
C           3.6499778    -0.4929979    -0.3174762
C           3.6447239     0.6400739     0.5241718
H           2.7382389     0.9261163     1.0459899
C           4.8048700     1.3694962     0.7851956
H           4.7510626     2.2354781     1.4402832
24
432_C12H11N_1-0-19-17 (-150,) energy =    -518.6534468
C           2.4678398    -1.4107237    -0.3926798
C           1.1261750    -0.9419610    -0.3441799
N           0.8036174     0.4099454    -0.4439977
H          -0.0824347     0.6927027    -0.0494029
H           1.5433681     1.0807689    -0.3081396
C           0.0729681    -1.8750571    -0.3254415
H          -0.9494863    -1.5035530    -0.3013605
C           0.3142471    -3.2420747    -0.3691542
H          -0.5229031    -3.9351416    -0.3501906
C           1.6252136    -3.7167203    -0.4418832
H           1.8303647    -4.7826352    -0.4717362
C           2.6730846    -2.8013850    -0.4421442
H           3.6946234    -3.1701172    -0.4339065
C           6.0069957     1.0025852     0.1970607
H           6.9059326     1.5909249     0.3590434
C           6.0198790    -0.0833000    -0.6796896
H           6.9329957    -0.3476381    -1.2069022
C           4.8653556    -0.8353240    -0.8879980
H           4.8901681    -1.6617584    -1.5924589
C           3.6534646    -0.5184780    -0.2456484
C           3.6730220     0.5581480     0.6637778
H           2.7912288     0.7773033     1.2590478
C           4.8269538     1.3132792     0.8730208
H           4.8060450     2.1349288     1.5845537
24
432_C12H11N_1-0-19-17 (-135,) energy =    -518.6559204
C           2.4750845    -1.4450750    -0.3016715
C           1.1488067    -0.9468843    -0.3880409
N           0.8792647     0.4132254    -0.5402293
H          -0.0280920     0.7210705    -0.2176169
H           1.6233597     1.0530516    -0.3030530
C           0.0793788    -1.8597297    -0.4276255
H          -0.9347048    -1.4726307    -0.5037789
C           0.2996818    -3.2319960    -0.3997352
H          -0.5493566    -3.9101667    -0.4291901
C           1.6015780    -3.7329620    -0.3398017
H           1.7854560    -4.8029575    -0.3171728
C           2.6655048    -2.8358786    -0.2898054
H           3.6814556    -3.2124479    -0.2037366
C           5.9771401     1.0350758     0.1530748
H           6.8665454     1.6474606     0.2738185
C           5.9517245     0.0076943    -0.7915574
H           6.8232324    -0.1827298    -1.4126953
C           4.8089988    -0.7759548    -0.9490769
H           4.7915412    -1.5617824    -1.6992411
C           3.6601314    -0.5511864    -0.1713855
C           3.7112669     0.4743346     0.7916363
H           2.8629200     0.6286240     1.4540420
C           4.8519609     1.2622018     0.9472162
H           4.8663687     2.0435457     1.7029096
24
432_C12H11N_1-0-19-17 (-120,) energy =    -518.6565144
C           2.4811759    -1.4743206    -0.2324028
C           1.1800809    -0.9528831    -0.4435484
N           0.9662698     0.4097204    -0.6561517
H           0.0436137     0.7470219    -0.4154012
H           1.7025926     1.0275280    -0.3427088
C           0.0951584    -1.8440122    -0.5224622
H          -0.9023238    -1.4432707    -0.6912464
C           0.2837162    -3.2176806    -0.4127152
H          -0.5754665    -3.8806670    -0.4761665
C           1.5648203    -3.7408364    -0.2278065
H           1.7203580    -4.8122936    -0.1438975
C           2.6444445    -2.8635551    -0.1436832
H           3.6465234    -3.2524225     0.0197471
C           5.9491244     1.0640914     0.1255336
H           6.8266758     1.6983446     0.2176727
C           5.8698246     0.1168606    -0.8967933
H           6.6859737     0.0130329    -1.6072127
C           4.7415238    -0.6950941    -1.0171735
H           4.6775753    -1.4217825    -1.8224888
C           3.6713396    -0.5824408    -0.1154173
C           3.7689817     0.3709932     0.9138125
H           2.9664645     0.4496321     1.6438492
C           4.8943154     1.1877665     1.0317135
H           4.9521036     1.9122963     1.8400599
24
432_C12H11N_1-0-19-17 (-105,) energy =    -518.6560966
C           2.4887187    -1.4942411    -0.1935979
C           1.2162669    -0.9667593    -0.5209696
N           1.0536836     0.3886189    -0.8153534
H           0.1220137     0.7520830    -0.6609457
H           1.7713263     1.0003690    -0.4479140
C           0.1202375    -1.8421383    -0.6140878
H          -0.8571784    -1.4380555    -0.8699544
C           0.2755532    -3.2084169    -0.4017424
H          -0.5901508    -3.8613757    -0.4795291
C           1.5302512    -3.7375534    -0.0942170
H           1.6577076    -4.8034235     0.0700707
C           2.6211779    -2.8741385     0.0020022
H           3.6044702    -3.2670460     0.2488282
C           5.9280135     1.0880408     0.1214958
H           6.7959654     1.7371734     0.2011970
C           5.7735894     0.2545738    -0.9878437
H           6.5208025     0.2552730    -1.7772784
C           4.6579713    -0.5775015    -1.0916001
H           4.5343551    -1.2183846    -1.9602890
C           3.6819247    -0.6003239    -0.0835924
C           3.8485406     0.2452075     1.0262052
H           3.1068147     0.2282263     1.8214201
C           4.9614208     1.0820259     1.1286653
H           5.0769707     1.7225041     1.9993689
24
432_C12H11N_1-0-19-17 (-90,) energy =    -518.6558360
C           2.4885199    -1.4955311    -0.1889022
C           1.2419523    -0.9889922    -0.6262070
N           1.1148706     0.3425364    -1.0302541
H           0.1782464     0.7202389    -0.9618507
H           1.8084762     0.9727804    -0.6468608
C           0.1421737    -1.8604982    -0.7066970
H          -0.8158178    -1.4726102    -1.0471757
C           0.2692464    -3.2037121    -0.3658242
H          -0.5979041    -3.8555786    -0.4364765
C           1.4965882    -3.7107199     0.0645068
H           1.6006753    -4.7580733     0.3320398
C           2.5910420    -2.8498152     0.1480126
H           3.5535831    -3.2259847     0.4857824
C           5.9253077     1.0885790     0.1462588
H           6.7944118     1.7354359     0.2324847
C           5.6631267     0.4212074    -1.0519996
H           6.3284388     0.5471014    -1.9023132
C           4.5476154    -0.4099023    -1.1627583
H           4.3432643    -0.9269228    -2.0963332
C           3.6775962    -0.5931283    -0.0765531
C           3.9512074     0.0860891     1.1214948
H           3.2877247    -0.0520297     1.9715921
C           5.0659372     0.9198505     1.2330087
H           5.2646072     1.4330973     2.1704356
24
432_C12H11N_1-0-19-17 (-75,) energy =    -518.6565038
C           2.4810116    -1.4784739    -0.1932455
C           1.2612000    -1.0133280    -0.7400563
N           1.1592916     0.2772846    -1.2676917
H           0.2195514     0.6535618    -1.2851524
H           1.8267305     0.9423963    -0.8964990
C           0.1626444    -1.8876022    -0.7987241
H          -0.7736166    -1.5310919    -1.2235228
C           0.2609029    -3.1918920    -0.3234374
H          -0.6050822    -3.8465786    -0.3805856
C           1.4576377    -3.6548894     0.2261170
H           1.5396028    -4.6709511     0.6006203
C           2.5504934    -2.7906931     0.2896703
H           3.4894754    -3.1328077     0.7178615
C           5.9373889     1.0709657     0.1804996
H           6.8158655     1.7034900     0.2774723
C           5.5468686     0.5994908    -1.0746866
H           6.1241282     0.8599042    -1.9581561
C           4.4209018    -0.2151449    -1.1990821
H           4.1217296    -0.5859272    -2.1756432
C           3.6614388    -0.5691821    -0.0715202
C           4.0673899    -0.0903361     1.1843610
H           3.4908775    -0.3621292     2.0648073
C           5.1947372     0.7234996     1.3100264
H           5.4928132     1.0846254     2.2910403
24
432_C12H11N_1-0-19-17 (-60,) energy =    -518.6576863
C           2.4722151    -1.4598972    -0.1696681
C           1.2850322    -1.0456360    -0.8233049
N           1.2012799     0.2005058    -1.4536234
H           0.2583781     0.5573719    -1.5491047
H           1.8342369     0.9034797    -1.0912597
C           0.1912324    -1.9262863    -0.8743682
H          -0.7179074    -1.6066124    -1.3798094
C           0.2563167    -3.1873159    -0.2900991
H          -0.6059966    -3.8468289    -0.3460479
C           1.4172763    -3.5996300     0.3660807
H           1.4766817    -4.5822510     0.8246166
C           2.5051791    -2.7302531     0.4220686
H           3.4187072    -3.0383664     0.9244745
C           5.9490283     1.0616218     0.1959841
H           6.8331795     1.6863921     0.2909374
C           5.4373234     0.7544347    -1.0663200
H           5.9277656     1.1327369    -1.9596328
C           4.3035055    -0.0493269    -1.1892095
H           3.9166285    -0.2952567    -2.1741490
C           3.6532003    -0.5572223    -0.0504649
C           4.1821270    -0.2416628     1.2125006
H           3.6887979    -0.6246795     2.1019556
C           5.3176916     0.5593238     1.3352787
H           5.7074451     0.7937469     2.3225919
24
432_C12H11N_1-0-19-17 (-45,) energy =    -518.6579020
C           2.3573030    -1.1900006    -0.4590286
C           1.6738346    -1.7923548     0.6292225
N           2.1114876    -1.6417001     1.9513201
H           1.8028061    -2.3820985     2.5702886
H           3.1046041    -1.4666784     2.0513984
C           0.5123631    -2.5423085     0.3766957
H          -0.0052761    -3.0030397     1.2158348
C           0.0226404    -2.7045513    -0.9145407
H          -0.8794694    -3.2892054    -1.0752879
C           0.6893135    -2.1218493    -1.9934751
H           0.3140999    -2.2367744    -3.0060493
C           1.8402806    -1.3766147    -1.7513706
H           2.3527253    -0.8983464    -2.5818659
C           5.9235242     1.1979607    -0.0117523
H           6.8218250     1.8006325     0.0919024
C           4.8479297     1.3808263     0.8583440
H           4.9007194     2.1359340     1.6386138
C           3.6945165     0.6061352     0.7288383
H           2.8565951     0.7742161     1.3985148
C           3.5875521    -0.3699684    -0.2796731
C           4.6838154    -0.5436833    -1.1445110
H           4.6333367    -1.3079866    -1.9151717
C           5.8350288     0.2314693    -1.0155397
H           6.6683193     0.0737815    -1.6955860
24
432_C12H11N_1-0-19-17 (-30,) energy =    -518.6561097
C           2.3925259    -1.2322049    -0.4518149
C           1.6386072    -1.7482702     0.6373222
N           2.0198975    -1.5565794     1.9735966
H           1.6337313    -2.2516371     2.6023224
H           3.0180720    -1.4538728     2.1165419
C           0.4691901    -2.4841556     0.3777038
H          -0.0931764    -2.8792773     1.2216123
C           0.0270775    -2.7158078    -0.9187265
H          -0.8832016    -3.2866799    -1.0822563
C           0.7555275    -2.2155932    -1.9989251
H           0.4200283    -2.3776257    -3.0189648
C           1.9099978    -1.4806105    -1.7505516
H           2.4487695    -1.0505665    -2.5896660
C           5.9327856     1.2161796    -0.0275687
H           6.8274159     1.8247903     0.0722301
C           4.9159641     1.2922778     0.9233474
H           5.0081706     1.9715713     1.7671346
C           3.7694029     0.5054547     0.8023122
H           2.9762707     0.6132430     1.5343257
C           3.5960168    -0.3684964    -0.2892310
C           4.6441269    -0.4421076    -1.2291233
H           4.5698855    -1.1430229    -2.0552400
C           5.7884668     0.3419145    -1.1068576
H           6.5768286     0.2587325    -1.8507067
24
432_C12H11N_1-0-19-17 (-15,) energy =    -518.6521439
C           2.4267804    -1.2727515    -0.4367864
C           1.6039004    -1.7066530     0.6418652
N           1.9289221    -1.4741127     1.9894841
H           1.4439170    -2.1028274     2.6204692
H           2.9236780    -1.4776038     2.1849761
C           0.4264360    -2.4269246     0.3725640
H          -0.1800669    -2.7577706     1.2136976
C           0.0311085    -2.7269363    -0.9235219
H          -0.8869947    -3.2830674    -1.0932768
C           0.8230143    -2.3120166    -1.9944824
H           0.5300498    -2.5248349    -3.0183194
C           1.9808503    -1.5875458    -1.7375318
H           2.5457969    -1.2134598    -2.5843246
C           5.9456160     1.2378566    -0.0485204
H           6.8368371     1.8527352     0.0424235
C           4.9982634     1.2043668     0.9719652
H           5.1389780     1.8049353     1.8672468
C           3.8587496     0.4048493     0.8635378
H           3.1185637     0.4534710     1.6526351
C           3.6048070    -0.3649505    -0.2910314
C           4.5949292    -0.3342293    -1.2979715
H           4.4918303    -0.9647520    -2.1745986
C           5.7332149     0.4584895    -1.1873752
H           6.4666558     0.4529034    -1.9897639
24
432_C12H11N_1-0-19-17 (0,) energy =    -518.6469059
C           2.4554532    -1.3012689    -0.4189662
C           1.5634895    -1.6531038     0.6387418
N           1.8211960    -1.3579659     1.9931195
H           1.2011722    -1.8677529     2.6142130
H           2.7833027    -1.5207742     2.2698166
C           0.3786669    -2.3559695     0.3558625
H          -0.2765826    -2.6118988     1.1866664
C           0.0381934    -2.7400031    -0.9323880
H          -0.8867442    -3.2812311    -1.1120810
C           0.9075766    -2.4358665    -1.9788995
H           0.6750145    -2.7271861    -2.9989801
C           2.0688109    -1.7222367    -1.7109679
H           2.6857250    -1.4547499    -2.5592605
C           5.9656610     1.2597431    -0.0697560
H           6.8534392     1.8810040     0.0103708
C           5.1164803     1.0837681     1.0184014
H           5.3280685     1.5791503     1.9627881
C           3.9835008     0.2735984     0.9210980
H           3.3213589     0.2351878     1.7737243
C           3.6248256    -0.3706855    -0.2838823
C           4.5176123    -0.1849324    -1.3654479
H           4.3485035    -0.6859154    -2.3105070
C           5.6509288     0.6155459    -1.2670619
H           6.2980216     0.7257602    -2.1336331
24
432_C12H11N_1-0-19-17 (15,) energy =    -518.6521442
C           2.3866268    -1.2556932    -0.4476490
C           1.4890368    -1.5863751     0.6077095
N           1.6054930    -1.0502473     1.9018190
H           0.7411940    -1.1139786     2.4286286
H           1.9661515    -0.1032179     1.9301283
C           0.4156516    -2.4605807     0.3603008
H          -0.2632644    -2.6884055     1.1800303
C           0.2028893    -3.0245005    -0.8898279
H          -0.6358004    -3.6983842    -1.0431177
C           1.0700713    -2.7140308    -1.9376505
H           0.9322329    -3.1506416    -2.9223988
C           2.1412144    -1.8616627    -1.6977516
H           2.8439966    -1.6874619    -2.5052305
C           5.9863099     1.1304901    -0.0183403
H           6.8801482     1.7407384     0.0779762
C           5.4111221     0.5309732     1.0995434
H           5.8608942     0.6609093     2.0807808
C           4.2549428    -0.2426410     0.9802304
H           3.8742496    -0.7392282     1.8642366
C           3.6500724    -0.4775460    -0.2724000
C           4.2374950     0.1650841    -1.3846996
H           3.7723295     0.0841366    -2.3613299
C           5.3866735     0.9405040    -1.2648913
H           5.8054601     1.4129860    -2.1498547
24
432_C12H11N_1-0-19-17 (30,) energy =    -518.6561097
C           2.4075486    -1.3079702    -0.4427506
C           1.4607175    -1.5455552     0.5906641
N           1.5621857    -0.9471346     1.8553360
H           0.6767008    -0.8996791     2.3464437
H           2.0271441    -0.0465009     1.8594466
C           0.3757671    -2.4054639     0.3459240
H          -0.3449959    -2.5715758     1.1443389
C           0.2077551    -3.0350523    -0.8809675
H          -0.6414348    -3.6958412    -1.0342065
C           1.1287286    -2.8126909    -1.9057099
H           1.0196299    -3.3040340    -2.8679841
C           2.2088165    -1.9686617    -1.6696249
H           2.9508993    -1.8350207    -2.4511610
C           5.9514364     1.1307903     0.0062682
H           6.8390947     1.7488760     0.1100315
C           5.4579041     0.4132669     1.0950997
H           5.9668486     0.4598846     2.0546400
C           4.3129756    -0.3748196     0.9669467
H           3.9733028    -0.9539131     1.8188814
C           3.6375079    -0.4856494    -0.2646265
C           4.1438875     0.2619166    -1.3472285
H           3.6195099     0.2433134    -2.2979922
C           5.2851984     1.0492857    -1.2182717
H           5.6470721     1.6125130    -2.0747570
24
432_C12H11N_1-0-19-17 (45,) energy =    -518.6579020
C           2.4328837    -1.3563696    -0.4337655
C           1.4363137    -1.5000110     0.5664663
N           1.5252571    -0.8395895     1.7985820
H           0.6311627    -0.7084425     2.2568297
H           2.0606421     0.0206202     1.7804038
C           0.3406719    -2.3461325     0.3238511
H          -0.4206792    -2.4497388     1.0945575
C           0.2154675    -3.0421228    -0.8733804
H          -0.6433801    -3.6900254    -1.0285092
C           1.1860835    -2.9044891    -1.8668886
H           1.1025012    -3.4466488    -2.8041059
C           2.2750396    -2.0687060    -1.6337434
H           3.0487175    -1.9739083    -2.3910410
C           5.9287188     1.1326411     0.0184394
H           6.8118364     1.7570352     0.1239798
C           5.5216831     0.3047607     1.0655064
H           6.0939531     0.2735590     1.9892634
C           4.3863815    -0.4957819     0.9331802
H           4.0937679    -1.1517318     1.7473904
C           3.6312811    -0.4903910    -0.2547176
C           4.0538938     0.3542103    -1.2977686
H           3.4726316     0.3930555    -2.2149654
C           5.1888283     1.1524710    -1.1654905
H           5.4906892     1.7980660    -1.9863368
24
432_C12H11N_1-0-19-17 (60,) energy =    -518.6576859
C           2.4532044    -1.3959686    -0.4136671
C           1.4066112    -1.4429525     0.5407017
N           1.4746900    -0.7081010     1.7291894
H           0.5744847    -0.5026410     2.1450603
H           2.0657210     0.1135153     1.6875483
C           0.3036584    -2.2805789     0.3031099
H          -0.4971346    -2.3174936     1.0390261
C           0.2238457    -3.0528213    -0.8514306
H          -0.6418882    -3.6914604    -1.0073617
C           1.2442759    -3.0040527    -1.8026309
H           1.1895459    -3.6039145    -2.7062261
C           2.3403299    -2.1740092    -1.5742648
H           3.1462540    -2.1289453    -2.3025177
C           5.9149623     1.1338399     0.0265680
H           6.7945370     1.7638895     0.1287734
C           5.6069662     0.1923300     1.0106037
H           6.2516590     0.0804551     1.8786571
C           4.4792480    -0.6186559     0.8795852
H           4.2508517    -1.3580777     1.6420578
C           3.6315361    -0.4995112    -0.2361088
C           3.9568018     0.4504181    -1.2191336
H           3.3095555     0.5559904    -2.0858127
C           5.0861408     1.2591100    -1.0898228
H           5.3166250     1.9899901    -1.8607658
24
432_C12H11N_1-0-19-17 (75,) energy =    -518.6565039
C           2.4650580    -1.4244257    -0.4101851
C           1.3691023    -1.3760435     0.4842110
N           1.4025712    -0.5522357     1.6131844
H           0.4929098    -0.2903019     1.9722205
H           2.0246820     0.2435830     1.5406742
C           0.2634093    -2.2123225     0.2544251
H          -0.5771055    -2.1783491     0.9447391
C           0.2344000    -3.0750996    -0.8371183
H          -0.6340632    -3.7105640    -0.9912960
C           1.3071827    -3.1216726    -1.7289946
H           1.2891441    -3.7913372    -2.5837304
C           2.4059907    -2.2917337    -1.5075460
H           3.2489313    -2.3117799    -2.1939281
C           5.9050143     1.1329230     0.0510078
H           6.7783636     1.7707594     0.1587978
C           5.7086812     0.0591726     0.9220760
H           6.4319146    -0.1449075     1.7074842
C           4.5891915    -0.7618390     0.7822201
H           4.4409215    -1.6003174     1.4572010
C           3.6426512    -0.5215568    -0.2277187
C           3.8544844     0.5597840    -1.0978838
H           3.1320668     0.7525587    -1.8867878
C           4.9750743     1.3809126    -0.9598239
H           5.1213589     2.2135134    -1.6432264
24
432_C12H11N_1-0-19-17 (90,) energy =    -518.6558365
C           2.4298648    -1.4037125    -0.4706987
C           1.2723488    -1.2269042     0.3234987
N           1.1968914    -0.1875711     1.2541007
H           0.5497146    -0.3445282     2.0163474
H           2.0906103     0.1606511     1.5784296
C           0.1710159    -2.0767222     0.1220988
H          -0.7214215    -1.9381604     0.7291147
C           0.2091326    -3.0782620    -0.8432659
H          -0.6564727    -3.7221632    -0.9774142
C           1.3471401    -3.2571757    -1.6316854
H           1.3818047    -4.0374727    -2.3861979
C           2.4435974    -2.4175184    -1.4351583
H           3.3402672    -2.5452176    -2.0366255
C           5.8841646     1.1162846     0.0945391
H           6.7565860     1.7492613     0.2338884
C           5.7580074    -0.0728304     0.8143155
H           6.5333642    -0.3710194     1.5154344
C           4.6375461    -0.8862217     0.6321116
H           4.5444811    -1.8165033     1.1869624
C           3.6268002    -0.5265715    -0.2737196
C           3.7635663     0.6757169    -0.9852653
H           2.9842347     0.9676066    -1.6838920
C           4.8837168     1.4883879    -0.8058043
H           4.9750629     2.4130903    -1.3698137
24
432_C12H11N_1-0-19-17 (105,) energy =    -518.6564628
C           2.4322439    -1.4077497    -0.4800988
C           1.2358024    -1.1620648     0.2353622
N           1.1154622    -0.0468498     1.0694484
H           0.4213025    -0.1391472     1.8005835
H           1.9918969     0.3174952     1.4224204
C           0.1430440    -2.0268157     0.0535383
H          -0.7780792    -1.8348324     0.6001857
C           0.2272676    -3.1145697    -0.8103852
H          -0.6335196    -3.7674834    -0.9311004
C           1.4067486    -3.3689733    -1.5121407
H           1.4795103    -4.2175257    -2.1859494
C           2.4954483    -2.5157526    -1.3335099
H           3.4235481    -2.7006367    -1.8688572
C           5.8919258     1.0953238     0.1133858
H           6.7655426     1.7243781     0.2626205
C           5.8546054    -0.1919291     0.6516650
H           6.6981647    -0.5685186     1.2245953
C           4.7318027    -0.9992383     0.4599983
H           4.7017423    -2.0003547     0.8822653
C           3.6327504    -0.5388809    -0.2826175
C           3.6787807     0.7633323    -0.8076403
H           2.8297301     1.1354945    -1.3744116
C           4.7998161     1.5715940    -0.6151818
H           4.8212104     2.5731831    -1.0370189
24
432_C12H11N_1-0-19-17 (120,) energy =    -518.6576013
C           2.4351259    -1.4063470    -0.4508758
C           1.1968469    -1.1092216     0.1708197
N           1.0233587     0.0572315     0.9235241
H           0.2806860     0.0038389     1.6099858
H           1.8744158     0.4379011     1.3196570
C           0.1134764    -1.9848993    -0.0145696
H          -0.8374119    -1.7534949     0.4613487
C           0.2420370    -3.1333197    -0.7894085
H          -0.6141542    -3.7912784    -0.9147273
C           1.4611900    -3.4401929    -1.3958084
H           1.5699740    -4.3349378    -2.0015506
C           2.5405316    -2.5773318    -1.2140170
H           3.4959967    -2.7995136    -1.6827678
C           5.9155650     1.0765437     0.1035141
H           6.7959119     1.6989015     0.2404389
C           5.9386990    -0.2670970     0.4815636
H           6.8370221    -0.6950323     0.9192462
C           4.8068341    -1.0640194     0.3076212
H           4.8245484    -2.1067047     0.6137144
C           3.6327013    -0.5385977    -0.2577878
C           3.6213674     0.8183344    -0.6258965
H           2.7211282     1.2418567    -1.0623185
C           4.7522520     1.6162144    -0.4489273
H           4.7257028     2.6605286    -0.7494866
24
432_C12H11N_1-0-19-17 (135,) energy =    -518.6579730
C           2.4416562    -1.4167391    -0.3837692
C           1.1616561    -1.0761040     0.1250783
N           0.9393481     0.1218442     0.8157483
H           0.1390582     0.0942928     1.4364083
H           1.7559690     0.5003795     1.2812460
C           0.0835553    -1.9507888    -0.0931483
H          -0.8953590    -1.6843231     0.3006566
C           0.2491843    -3.1399602    -0.7947587
H          -0.6053108    -3.7940717    -0.9479521
C           1.5050291    -3.4889364    -1.2939880
H           1.6453070    -4.4127390    -1.8473459
C           2.5781484    -2.6270506    -1.0819909
H           3.5556034    -2.8783281    -1.4852335
C           5.9417270     1.0641475     0.0675838
H           6.8292558     1.6824336     0.1721422
C           6.0047615    -0.3072354     0.3221099
H           6.9427604    -0.7620587     0.6303016
C           4.8649280    -1.0988967     0.1906283
H           4.9189814    -2.1622140     0.4078887
C           3.6332129    -0.5423020    -0.1991516
C           3.5877304     0.8408119    -0.4560037
H           2.6549001     1.2913612    -0.7814383
C           4.7285217     1.6331797    -0.3224912
H           4.6692322     2.6977515    -0.5345514
24
432_C12H11N_1-0-19-17 (150,) energy =    -518.6565093
C           2.4552877    -1.4341942    -0.2932203
C           1.1423075    -1.0509428     0.0924196
N           0.8800540     0.1662047     0.7382404
H           0.0176757     0.1605863     1.2707736
H           1.6484218     0.5223920     1.2950585
C           0.0651515    -1.9118202    -0.1791711
H          -0.9342272    -1.6079435     0.1264790
C           0.2537714    -3.1306746    -0.8193501
H          -0.6015559    -3.7716702    -1.0163567
C           1.5374225    -3.5223812    -1.2018296
H           1.7011798    -4.4670437    -1.7118350
C           2.6083043    -2.6726925    -0.9422095
H           3.5998653    -2.9569719    -1.2814978
C           5.9716466     1.0594718     0.0162930
H           6.8625727     1.6787297     0.0758783
C           6.0621830    -0.3256868     0.1669627
H           7.0270552    -0.7928659     0.3470943
C           4.9189884    -1.1177905     0.0920789
H           5.0074132    -2.1906291     0.2367143
C           3.6457345    -0.5540288    -0.1218064
C           3.5778611     0.8434334    -0.2904578
H           2.6245035     1.3095350    -0.5157730
C           4.7236300     1.6366482    -0.2166302
H           4.6377497     2.7113287    -0.3567221
24
432_C12H11N_1-0-19-17 (165,) energy =    -518.6527459
C           2.4715763    -1.4497051    -0.2031968
C           1.1372787    -1.0273454     0.0579080
N           0.8400947     0.2061726     0.6621516
H          -0.0811424     0.2242532     1.0854833
H           1.5394014     0.5284394     1.3215432
C           0.0621912    -1.8712130    -0.2706448
H          -0.9483828    -1.5284321    -0.0562759
C           0.2626325    -3.1185491    -0.8462057
H          -0.5915207    -3.7449505    -1.0892552
C           1.5627324    -3.5551390    -1.1016943
H           1.7447710    -4.5228094    -1.5597859
C           2.6305161    -2.7195390    -0.7939529
H           3.6289270    -3.0475648    -1.0611776
C           6.0009192     1.0629074    -0.0328460
H           6.8911218     1.6857230    -0.0153778
C           6.1069457    -0.3285772     0.0045948
H           7.0848857    -0.8010132     0.0509160
C           4.9652303    -1.1241695    -0.0182469
H           5.0872306    -2.2006608     0.0441760
C           3.6686824    -0.5679992    -0.0508559
C           3.5884039     0.8390836    -0.1220449
H           2.6252257     1.3190584    -0.2462559
C           4.7334613     1.6369905    -0.1041745
H           4.6266296     2.7173179    -0.1636447
24
432_C12H11N_1-0-19-17 (180,) energy =    -518.6474502
C           2.4719670    -1.4542142    -0.1549530
C           1.1257969    -1.0058628    -0.0035899
N           0.7929739     0.2545817     0.5312738
H          -0.1840928     0.3077856     0.7997262
H           1.3760080     0.5360206     1.3119243
C           0.0587163    -1.8481836    -0.3629266
H          -0.9557537    -1.4734117    -0.2386961
C           0.2649759    -3.1319524    -0.8452844
H          -0.5841733    -3.7549394    -1.1128096
C           1.5699700    -3.6095827    -0.9592120
H           1.7655849    -4.6137052    -1.3238326
C           2.6303451    -2.7740851    -0.6309262
H           3.6287176    -3.1621079    -0.7875144
C           6.0167702     1.0752651    -0.0429204
H           6.9053778     1.7004631    -0.0359148
C           6.1198996    -0.3091685    -0.1843559
H           7.0951387    -0.7764355    -0.2953233
C           4.9810053    -1.1078620    -0.1952930
H           5.1275796    -2.1772053    -0.2884162
C           3.6819408    -0.5754831    -0.0288297