22
247_C8H10N2O2_1-0-5-11 (-165,) energy =    -570.8346341
N           2.0804330    -0.1688301    -2.5745972
C           1.2634796     0.0728704    -3.7543943
H           1.1697001     1.1483607    -3.8976805
H           0.2625820    -0.3624943    -3.6333497
H           1.7348612    -0.3821395    -4.6354355
C           2.5648463     0.9032477    -1.8767273
C           5.7583059     0.5933699     0.9903357
H           6.6099992     0.5016267     1.6559456
N           5.8682704    -0.0242689    -0.2179507
H           6.7220453    -0.5093393    -0.4706917
C           4.8946544    -0.0293392    -1.2421845
C           3.6734624     0.6814880    -0.8766483
C           3.5865577     1.3318413     0.3312132
H           2.6892717     1.9105650     0.5320626
C           4.6213291     1.2817767     1.3023460
H           4.5247099     1.7822643     2.2578910
O           2.1364297     2.0471751    -2.0382803
C           2.3774039    -1.5620928    -2.2861393
H           3.1020398    -1.9784360    -2.9938175
H           1.4453006    -2.1390471    -2.3387063
H           2.7790511    -1.6637027    -1.2772854
O           5.1505930    -0.5908001    -2.3049464
22
247_C8H10N2O2_1-0-5-11 (-150,) energy =    -570.8321907
N           1.9732882    -0.1664585    -2.4806982
C           1.3876730     0.0738006    -3.7921280
H           1.2453286     1.1463683    -3.9190487
H           0.4167481    -0.4292232    -3.8839763
H           2.0552822    -0.3104637    -4.5756089
C           2.4564900     0.9021372    -1.7695065
C           5.7873938     0.6100945     0.9374046
H           6.6728172     0.5231414     1.5581200
N           5.8465367     0.0120740    -0.2841860
H           6.6937907    -0.4558013    -0.5865006
C           4.8227278     0.0047194    -1.2580155
C           3.6098794     0.6885256    -0.8205002
C           3.5728706     1.3192386     0.4004229
H           2.6762184     1.8769266     0.6567372
C           4.6565537     1.2747170     1.3166386
H           4.6003222     1.7593495     2.2835185
O           2.0194843     2.0435463    -1.9168368
C           2.2806978    -1.5558387    -2.1827110
H           3.0593181    -1.9535948    -2.8426435
H           1.3659951    -2.1508895    -2.2985643
H           2.6151190    -1.6523986    -1.1481329
O           5.0359252    -0.5338840    -2.3420280
22
247_C8H10N2O2_1-0-5-11 (-135,) energy =    -570.8279558
N           1.8799319    -0.1829333    -2.4212861
C           1.5495484     0.0405668    -3.8240608
H           1.3625774     1.1035677    -3.9756461
H           0.6496008    -0.5206751    -4.1028029
H           2.3831629    -0.2871447    -4.4608765
C           2.3615166     0.8844377    -1.6935746
C           5.8148717     0.6158855     0.8556034
H           6.7305542     0.5339446     1.4314045
N           5.8257032     0.0409252    -0.3787524
H           6.6663213    -0.4044145    -0.7298092
C           4.7566543     0.0316724    -1.3012221
C           3.5545716     0.6846885    -0.7928317
C           3.5643192     1.2924996     0.4399403
H           2.6704027     1.8263395     0.7512874
C           4.6923165     1.2525821     1.3014341
H           4.6747013     1.7184350     2.2789695
O           1.9083937     2.0195733    -1.8238892
C           2.1868929    -1.5649909    -2.0822911
H           3.0204742    -1.9600995    -2.6740181
H           1.2936493    -2.1768247    -2.2601838
H           2.4384737    -1.6409760    -1.0220613
O           4.9264149    -0.4797577    -2.4064146
22
247_C8H10N2O2_1-0-5-11 (-120,) energy =    -570.8225939
N           1.7951301    -0.1853271    -2.3614633
C           1.7085689     0.0381700    -3.8038689
H           1.4941247     1.0918974    -3.9877814
H           0.8970221    -0.5626243    -4.2306776
H           2.6556822    -0.2399103    -4.2858614
C           2.2712615     0.8637657    -1.5863221
C           5.8533848     0.6073239     0.7814826
H           6.7971847     0.5266706     1.3101065
N           5.8125840     0.0595644    -0.4641717
H           6.6408335    -0.3665878    -0.8650673
C           4.6998315     0.0520511    -1.3331581
C           3.5146321     0.6748990    -0.7537859
C           3.5760877     1.2564306     0.4908019
H           2.6889915     1.7667852     0.8563798
C           4.7448300     1.2175007     1.2952009
H           4.7680565     1.6618050     2.2826035
O           1.7733699     1.9833016    -1.6456337
C           2.0920104    -1.5692305    -2.0069427
H           2.9852171    -1.9502214    -2.5162560
H           1.2300978    -2.1906848    -2.2792851
H           2.2340465    -1.6536169    -0.9263338
O           4.8262717    -0.4318942    -2.4570412
22
247_C8H10N2O2_1-0-5-11 (-105,) energy =    -570.8164352
N           1.7173854    -0.1919211    -2.3607901
C           1.8579774     0.0642588    -3.7972847
H           1.6465859     1.1176132    -3.9947096
H           1.1282701    -0.5400374    -4.3487858
H           2.8703704    -0.1834721    -4.1404179
C           2.1805892     0.8183825    -1.5063414
C           5.8703573     0.6494108     0.7107788
H           6.8320028     0.5886580     1.2091810
N           5.7925857     0.0771317    -0.5201987
H           6.6102731    -0.3508657    -0.9405465
C           4.6515998     0.0387644    -1.3535868
C           3.4789781     0.6631704    -0.7510307
C           3.5789410     1.2658503     0.4835701
H           2.6962644     1.7690387     0.8686579
C           4.7720286     1.2583374     1.2489725
H           4.8217240     1.7223925     2.2262255
O           1.6032786     1.8960495    -1.4398404
C           1.9871337    -1.5845607    -2.0041617
H           2.9401311    -1.9536302    -2.4030096
H           1.1726796    -2.2040368    -2.3991284
H           1.9858740    -1.6946575    -0.9158208
O           4.7584027    -0.4695844    -2.4687502
22
247_C8H10N2O2_1-0-5-11 (-90,) energy =    -570.8186780
N           2.3010273    -0.7206282    -2.4086351
C           2.3778428    -0.0561410    -3.7205657
H           3.2531699     0.5933229    -3.7578742
H           1.4656513     0.5255811    -3.9281667
H           2.4957754    -0.8188476    -4.4962180
C           2.3099698     0.1707281    -1.3066793
C           6.0135579     1.1223462     0.6669505
H           6.9743661     1.3038338     1.1374228
N           6.0437471     0.5847696    -0.5784231
H           6.9283186     0.3958741    -1.0370295
C           4.9222489     0.2880051    -1.3956140
C           3.6461367     0.5377038    -0.7257603
C           3.6341260     1.1038232     0.5328944
H           2.6603333     1.2970764     0.9726828
C           4.8123444     1.4055845     1.2560270
H           4.7720713     1.8354933     2.2491786
O           1.2877466     0.4370885    -0.6853685
C           1.1290323    -1.6078939    -2.3751884
H           1.2708498    -2.3732025    -3.1449864
H           0.1820085    -1.0820262    -2.5628759
H           1.0617713    -2.0944126    -1.3995161
O           5.1344721    -0.1122330    -2.5351656
22
247_C8H10N2O2_1-0-5-11 (-75,) energy =    -570.8244395
N           2.2486171    -0.7458828    -2.3769176
C           2.4471968     0.0102200    -3.6210283
H           3.3281462     0.6462293    -3.5419620
H           1.5623301     0.6227376    -3.8543386
H           2.6191725    -0.6909536    -4.4429801
C           2.2981179    -0.0110941    -1.1856495
C           6.0192560     1.2159508     0.6055526
H           6.9831333     1.4694991     1.0346338
N           6.0408753     0.5597606    -0.5817012
H           6.9219781     0.3407595    -1.0334693
C           4.9149705     0.1506884    -1.3427963
C           3.6429963     0.4434328    -0.6816865
C           3.6406172     1.1156265     0.5237774
H           2.6703513     1.3109938     0.9703336
C           4.8214073     1.5204398     1.1900062
H           4.7856607     2.0432628     2.1377225
O           1.3224301     0.0773909    -0.4442103
C           1.0557509    -1.5941679    -2.4704127
H           1.1932388    -2.2733672    -3.3177402
H           0.1318897    -1.0170667    -2.6206108
H           0.9458788    -2.1772075    -1.5545977
O           5.1240813    -0.3781189    -2.4300286
22
247_C8H10N2O2_1-0-5-11 (-60,) energy =    -570.8291721
N           2.2078829    -0.7550808    -2.3585186
C           2.5163131     0.0521921    -3.5409626
H           3.3803044     0.6885977    -3.3587103
H           1.6531669     0.6763235    -3.8192793
H           2.7619990    -0.6060412    -4.3796125
C           2.3141348    -0.1821016    -1.1000396
C           6.0196788     1.2902058     0.5302468
H           6.9815081     1.6061900     0.9205925
N           6.0444713     0.5420560    -0.6023840
H           6.9262848     0.3067183    -1.0443496
C           4.9218661     0.0363352    -1.3060949
C           3.6506150     0.3567755    -0.6568216
C           3.6447370     1.1071106     0.5002073
H           2.6773277     1.2964879     0.9557160
C           4.8225311     1.6012999     1.1113472
H           4.7846535     2.1950206     2.0162629
O           1.4010657    -0.2558011    -0.2783926
C           1.0075781    -1.5694600    -2.5482830
H           1.1463804    -2.1750062    -3.4494826
H           0.0995000    -0.9597987    -2.6649474
H           0.8678313    -2.2229230    -1.6866553
O           5.1277052    -0.5936550    -2.3391778
22
247_C8H10N2O2_1-0-5-11 (-45,) energy =    -570.8324006
N           2.1475587    -0.7158769    -2.3382666
C           2.5676569     0.0900406    -3.4806713
H           3.3697258     0.7703389    -3.2025952
H           1.7184940     0.6790759    -3.8588995
H           2.9378647    -0.5550047    -4.2834298
C           2.3230796    -0.2921937    -1.0404760
C           6.0053388     1.3569472     0.4635212
H           6.9640488     1.7176480     0.8212621
N           6.0337045     0.5534083    -0.6318510
H           6.9159679     0.3104638    -1.0686518
C           4.9149449    -0.0244771    -1.2814163
C           3.6452249     0.3124026    -0.6390720
C           3.6350789     1.1080823     0.4853681
H           2.6721786     1.2894500     0.9538295
C           4.8102697     1.6633790     1.0502552
H           4.7717500     2.2985139     1.9265714
O           1.4747876    -0.4962678    -0.1708387
C           0.9488298    -1.5079917    -2.5926237
H           1.1022594    -2.0830826    -3.5115872
H           0.0543267    -0.8792193    -2.7141917
H           0.7768118    -2.1862594    -1.7572159
O           5.1144545    -0.7256299    -2.2692157
22
247_C8H10N2O2_1-0-5-11 (-30,) energy =    -570.8342169
N           2.0834145    -0.6617097    -2.3148581
C           2.6036149     0.1165773    -3.4305850
H           3.2987022     0.8777074    -3.0800911
H           1.7715075     0.6219214    -3.9411771
H           3.1282896    -0.5234324    -4.1468980
C           2.3361663    -0.3844070    -0.9975765
C           5.9933064     1.4014421     0.4034941
H           6.9488474     1.7967272     0.7317395
N           6.0231123     0.5656389    -0.6689732
H           6.9045711     0.3243550    -1.1082319
C           4.9082025    -0.0654018    -1.2704899
C           3.6418257     0.2728249    -0.6242930
C           3.6294932     1.0940217     0.4798127
H           2.6726889     1.2651839     0.9646464
C           4.8025414     1.6946626     1.0045853
H           4.7652398     2.3538966     1.8629896
O           1.5556937    -0.7072887    -0.0997471
C           0.9004165    -1.4554291    -2.6177192
H           1.0889073    -2.0418018    -3.5236497
H           0.0169921    -0.8224715    -2.7874913
H           0.6911275    -2.1212236    -1.7813777
O           5.0999138    -0.8117922    -2.2266244
22
247_C8H10N2O2_1-0-5-11 (-15,) energy =    -570.8349540
N           2.0118206    -0.6098591    -2.2791269
C           2.6028627     0.1331847    -3.3807752
H           3.2400302     0.9337936    -3.0058695
H           1.7987425     0.5894295    -3.9730793
H           3.2039503    -0.5146184    -4.0270932
C           2.3607065    -0.4837177    -0.9629698
C           5.9908750     1.4204997     0.3470356
H           6.9424953     1.8457902     0.6476888
N           6.0200547     0.5682345    -0.7140093
H           6.8993917     0.3343567    -1.1614535
C           4.9100677    -0.1058745    -1.2719472
C           3.6486587     0.2211727    -0.6130428
C           3.6360053     1.0547709     0.4801784
H           2.6874012     1.2125004     0.9855319
C           4.8064095     1.6926602     0.9690734
H           4.7710102     2.3641505     1.8180255
O           1.6620434    -0.9259880    -0.0488495
C           0.8544219    -1.4246539    -2.6170019
H           1.1080218    -2.1025293    -3.4412320
H           0.0075982    -0.7983628    -2.9312417
H           0.5622685    -1.9994048    -1.7394814
O           5.0940432    -0.8799640    -2.2081413
22
247_C8H10N2O2_1-0-5-11 (0,) energy =    -570.8348056
N           1.9268895    -0.5829908    -2.2125632
C           3.0012008    -1.1176507    -3.0341553
H           3.9201735    -1.2025359    -2.4533325
H           3.1984385    -0.4872477    -3.9076965
H           2.7185263    -2.1232623    -3.3683905
C           2.0940770     0.1717424    -1.0836619
C           5.9617724     1.2803629     0.4419727
H           6.9409083     1.6117845     0.7708538
N           5.6435344     1.5363502    -0.8575335
H           6.2900395     2.0390650    -1.4553309
C           4.4268806     1.2070793    -1.4938273
C           3.4966351     0.4946538    -0.6250669
C           3.8100446     0.2749453     0.6942532
H           3.0598707    -0.1901742     1.3277674
C           5.0649955     0.6429895     1.2498036
H           5.3047367     0.4399476     2.2862537
O           1.1475013     0.5520394    -0.3933747
C           0.5784725    -0.7836798    -2.7239035
H           0.3535989    -1.8555406    -2.7976249
H           0.4774061    -0.3390664    -3.7229736
H          -0.1244932    -0.3109584    -2.0397444
O           4.2525947     1.5396883    -2.6643804
22
247_C8H10N2O2_1-0-5-11 (15,) energy =    -570.8349542
N           1.9133327    -0.4923274    -2.2589026
C           2.9563979    -1.1206599    -3.0540739
H           3.8822296    -1.1939770    -2.4840391
H           3.1576090    -0.5580713    -3.9715047
H           2.6384250    -2.1384030    -3.3161491
C           2.1014458     0.1237956    -1.0527102
C           5.9674718     1.3165607     0.4140659
H           6.9442635     1.6662210     0.7310239
N           5.6401647     1.5409771    -0.8880568
H           6.2780441     2.0381750    -1.4996446
C           4.4258478     1.1819837    -1.5160458
C           3.5043641     0.4813805    -0.6259744
C           3.8302101     0.2925225     0.6962833
H           3.0853822    -0.1665224     1.3401726
C           5.0818330     0.6853044     1.2393554
H           5.3278212     0.5064082     2.2787626
O           1.1661111     0.4000697    -0.2989160
C           0.5522255    -0.6910919    -2.7337846
H           0.2606878    -1.7488563    -2.6685510
H           0.4770413    -0.3754427    -3.7815786
H          -0.1236962    -0.0997890    -2.1179746
O           4.2532330     1.4859726    -2.6939052
22
247_C8H10N2O2_1-0-5-11 (30,) energy =    -570.8342167
N           1.9500769    -0.4405097    -2.3066942
C           2.9554402    -1.1417589    -3.0933153
H           3.9095751    -1.1644944    -2.5695307
H           3.1074912    -0.6555077    -4.0620522
H           2.6304487    -2.1789312    -3.2579130
C           2.1482773     0.0114114    -1.0290128
C           5.9608302     1.3358084     0.4671403
H           6.9210435     1.7189137     0.7962246
N           5.6434332     1.5449335    -0.8386639
H           6.2774446     2.0507144    -1.4472228
C           4.4539740     1.1359300    -1.4875221
C           3.5365164     0.4206451    -0.6030764
C           3.8555527     0.2445579     0.7238763
H           3.1149300    -0.2359768     1.3566527
C           5.0848379     0.6784487     1.2830922
H           5.3223253     0.5105367     2.3262695
O           1.2177033     0.1495969    -0.2324934
C           0.5749536    -0.6532476    -2.7367714
H           0.2383311    -1.6805008    -2.5335321
H           0.5081537    -0.4709728    -3.8149102
H          -0.0787629     0.0351545    -2.2026098
O           4.3049963     1.4163068    -2.6738088
22
247_C8H10N2O2_1-0-5-11 (45,) energy =    -570.8324002
N           1.9745756    -0.3735390    -2.3587120
C           2.9194295    -1.1594359    -3.1465071
H           3.9211403    -1.0969278    -2.7268560
H           2.9614329    -0.7845898    -4.1737437
H           2.6089077    -2.2150893    -3.1636506
C           2.1965243    -0.0817366    -1.0318395
C           5.9378488     1.3968393     0.5033712
H           6.8772342     1.8184741     0.8454037
N           5.6417452     1.5715430    -0.8113264
H           6.2736147     2.0830864    -1.4173548
C           4.4843830     1.1056369    -1.4825790
C           3.5641254     0.3867657    -0.6021785
C           3.8675731     0.2383096     0.7332034
H           3.1296600    -0.2598130     1.3552012
C           5.0675159     0.7221846     1.3118021
H           5.2873558     0.5788200     2.3624794
O           1.2816966    -0.0824095    -0.2067374
C           0.5802213    -0.5797892    -2.7362867
H           0.2210001    -1.5836915    -2.4657955
H           0.4932500    -0.4543113    -3.8203755
H          -0.0466696     0.1534188    -2.2291374
O           4.3700680     1.3478379    -2.6806176
22
247_C8H10N2O2_1-0-5-11 (60,) energy =    -570.8291722
N           2.0255278    -0.3029728    -2.4156791
C           2.8829237    -1.1735956    -3.2230683
H           3.9242402    -1.0764032    -2.9215193
H           2.8149826    -0.8805977    -4.2749703
H           2.5691833    -2.2243170    -3.1252266
C           2.2782414    -0.1726766    -1.0582930
C           5.9249375     1.4844126     0.5267719
H           6.8381689     1.9498923     0.8826796
N           5.6639983     1.6045482    -0.8001276
H           6.3042923     2.1038544    -1.4076056
C           4.5516316     1.0649111    -1.4948523
C           3.6160919     0.3633194    -0.6157196
C           3.8906171     0.2617081     0.7319022
H           3.1529335    -0.2473227     1.3450613
C           5.0529149     0.8053454     1.3305670
H           5.2444922     0.7021181     2.3914365
O           1.3894824    -0.3180360    -0.2197158
C           0.6105555    -0.4633460    -2.7505127
H           0.2311956    -1.4663487    -2.5056083
H           0.4939524    -0.2927936    -3.8254195
H           0.0180215     0.2665253    -2.1981206
O           4.4924403     1.2400201    -2.7082499
22
247_C8H10N2O2_1-0-5-11 (75,) energy =    -570.8244390
N           2.0730854    -0.3019069    -2.4324322
C           2.8152090    -1.2217432    -3.3052167
H           3.8837437    -1.1586809    -3.1022023
H           2.6599022    -0.9300551    -4.3481317
H           2.4683458    -2.2580319    -3.1696242
C           2.3826687    -0.3460283    -1.0673909
C           5.8859017     1.5632438     0.5574029
H           6.7607266     2.0918377     0.9216777
N           5.6773474     1.5926764    -0.7829384
H           6.3265207     2.0754982    -1.3943928
C           4.6248705     0.9550023    -1.4896540
C           3.6734015     0.2791415    -0.6071217
C           3.9038768     0.2566757     0.7534431
H           3.1693987    -0.2613648     1.3627033
C           5.0122391     0.8893009     1.3645903
H           5.1629945     0.8557497     2.4364855
O           1.5464344    -0.6738839    -0.2291743
C           0.6325300    -0.3931525    -2.6928199
H           0.2246717    -1.3943102    -2.4915152
H           0.4662295    -0.1460665    -3.7461275
H           0.0986462     0.3225433    -2.0655283
O           4.6307841     1.0337582    -2.7140809
22
247_C8H10N2O2_1-0-5-11 (90,) energy =    -570.8186780
N           2.1272682    -0.2946170    -2.4601655
C           2.7314254    -1.2424972    -3.4115450
H           3.8169027    -1.2340593    -3.3063758
H           2.4930032    -0.9208311    -4.4298533
H           2.3442680    -2.2626508    -3.2599282
C           2.5008230    -0.5117967    -1.1102794
C           5.8075830     1.6562157     0.5874895
H           6.6336281     2.2501673     0.9647235
N           5.6843783     1.5825608    -0.7616773
H           6.3554551     2.0433373    -1.3664986
C           4.7058088     0.8473449    -1.4796522
C           3.7237303     0.2024076    -0.6083928
C           3.8762377     0.2707209     0.7616152
H           3.1373391    -0.2510222     1.3623198
C           4.9156688     0.9980085     1.3883650
H           5.0014133     1.0466981     2.4668226
O           1.7410523    -1.0439107    -0.3093310
C           0.6659576    -0.2994324    -2.6228905
H           0.2162834    -1.2909480    -2.4702227
H           0.4447753     0.0399155    -3.6399057
H           0.2127350     0.3941900    -1.9111053
O           4.7953323     0.8177487    -2.7023201
22
247_C8H10N2O2_1-0-5-11 (105,) energy =    -570.8164352
N           1.9462439    -0.9929274    -2.1376048
C           2.3870764    -1.6558372    -3.3685091
H           2.8368951    -2.6183237    -3.1145395
H           3.1141967    -1.0350155    -3.9069572
H           1.5200391    -1.8430758    -4.0127067
C           2.7881145    -1.1348901    -1.0256428
C           5.4170686     1.9360297     0.4631757
H           6.1027954     2.7177922     0.7721799
N           5.1847567     1.8317611    -0.8724951
H           5.6610667     2.4435056    -1.5262412
C           4.3390766     0.8908797    -1.5029098
C           3.6620873     0.0057801    -0.5614845
C           3.9292398     0.1018945     0.7864197
H           3.4470620    -0.6150033     1.4453361
C           4.7998983     1.0793654     1.3303519
H           4.9800295     1.1482380     2.3960207
O           2.9202971    -2.2201771    -0.4745049
C           1.3317719     0.3111834    -2.3848137
H           0.3673676     0.1477586    -2.8811021
H           1.9489062     0.9649640    -3.0134720
H           1.1311444     0.8119712    -1.4331999
O           4.2786551     0.8894821    -2.7316338
22
247_C8H10N2O2_1-0-5-11 (120,) energy =    -570.8225939
N           2.0134530    -0.9590655    -2.1649684
C           2.2544094    -1.7217778    -3.3888298
H           2.7020903    -2.6813467    -3.1264743
H           2.9280628    -1.1645597    -4.0540035
H           1.3080548    -1.9090951    -3.9095425
C           2.8997716    -1.1587389    -1.1144481
C           5.3714686     1.9632117     0.5137725
H           6.0266529     2.7592595     0.8511016
N           5.1808188     1.8688213    -0.8307850
H           5.6619811     2.4990170    -1.4629746
C           4.3820092     0.9104392    -1.4921423
C           3.6997494     0.0016472    -0.5774463
C           3.9261734     0.0829756     0.7765301
H           3.4499734    -0.6559739     1.4154550
C           4.7541846     1.0807561     1.3537365
H           4.9036108     1.1430451     2.4245665
O           3.1380876    -2.2813541    -0.6810845
C           1.4260990     0.3553997    -2.4013446
H           0.4055959     0.2179018    -2.7795179
H           2.0002091     0.9477340    -3.1238058
H           1.3597983     0.9070033    -1.4599459
O           4.3513890     0.9087362    -2.7218611
22
247_C8H10N2O2_1-0-5-11 (135,) energy =    -570.8279559
N           2.0913878    -0.9311025    -2.2090120
C           2.1259483    -1.8242582    -3.3613916
H           2.5951054    -2.7622064    -3.0646553
H           2.6993891    -1.3605613    -4.1762493
H           1.1102965    -2.0335198    -3.7181182
C           2.9965164    -1.1529084    -1.1929617
C           5.3345308     1.9857088     0.5899151
H           5.9610289     2.7869615     0.9670482
N           5.1733982     1.9318106    -0.7611818
H           5.6498588     2.5957648    -1.3614786
C           4.4141241     0.9757289    -1.4706275
C           3.7411248     0.0170044    -0.6001073
C           3.9378500     0.0580282     0.7596274
H           3.4731373    -0.7158807     1.3647010
C           4.7249682     1.0596232     1.3868333
H           4.8511953     1.0895299     2.4620439
O           3.2872298    -2.2857664    -0.8148746
C           1.5155021     0.3794929    -2.4734506
H           0.4639164     0.2498718    -2.7584779
H           2.0450162     0.9096332    -3.2732424
H           1.5435844     0.9880617    -1.5668065
O           4.4021228     1.0156237    -2.6994868
22
247_C8H10N2O2_1-0-5-11 (150,) energy =    -570.8321904
N           2.1735261    -0.8950030    -2.2807484
C           1.9921002    -1.9038510    -3.3150919
H           2.4973978    -2.8173318    -3.0036428
H           2.4156834    -1.5467184    -4.2639102
H           0.9268998    -2.1187038    -3.4679446
C           3.0847793    -1.1309594    -1.2831536
C           5.3047840     1.9998834     0.6599884
H           5.9015862     2.8012320     1.0824635
N           5.1642292     2.0026796    -0.6941200
H           5.6272249     2.7074565    -1.2572077
C           4.4443254     1.0570756    -1.4584576
C           3.7886584     0.0398643    -0.6427398
C           3.9661499     0.0251872     0.7204257
H           3.5193617    -0.7907914     1.2818953
C           4.7124424     1.0205334     1.4045544
H           4.8225059     1.0046627     2.4818305
O           3.3911290    -2.2686341    -0.9262987
C           1.6025281     0.4084181    -2.5787589
H           0.5340934     0.2828201    -2.7952678
H           2.0935196     0.8846319    -3.4343631
H           1.6943041     1.0653027    -1.7118194
O           4.4463193     1.1561399    -2.6835265
22
247_C8H10N2O2_1-0-5-11 (165,) energy =    -570.8346343
N           2.2935065    -0.8898170    -2.4118662
C           1.9190587    -1.9871442    -3.2910644
H           2.4776203    -2.8743878    -2.9965366
H           2.1505365    -1.7278320    -4.3325408
H           0.8438251    -2.1982665    -3.2176209
C           3.2120129    -1.1199583    -1.4245420
C           5.2636125     2.0329045     0.6646494
H           5.8178968     2.8421806     1.1279751
N           5.1479443     2.0802734    -0.6909450
H           5.5881249     2.8258752    -1.2186065
C           4.4805181     1.1358503    -1.5032098
C           3.8575013     0.0596677    -0.7390092
C           4.0125291     0.0006588     0.6256239
H           3.5954023    -0.8564742     1.1468599
C           4.7006334     1.0019109     1.3605250
H           4.7915782     0.9498893     2.4384427
O           3.5413127    -2.2557668    -1.0783421
C           1.6930830     0.3986129    -2.7149727
H           0.6131471     0.2602694    -2.8538770
H           2.1207498     0.8437679    -3.6194851
H           1.8392845     1.0903951    -1.8847756
O           4.4928274     1.2852554    -2.7229158
22
247_C8H10N2O2_1-0-5-11 (180,) energy =    -570.8347326
N           2.3782223    -0.8734079    -2.4891922
C           1.8100612    -2.0139894    -3.1931424
H           2.3881175    -2.9018274    -2.9419499
H           1.8442545    -1.8415950    -4.2758869
H           0.7626159    -2.1705656    -2.8998624
C           3.3075641    -1.1063906    -1.5130974
C           5.2064726     2.0360926     0.7318059
H           5.7225300     2.8451163     1.2377090
N           5.1347374     2.1218759    -0.6253640
H           5.5763606     2.8919778    -1.1152664
C           4.5235901     1.1834147    -1.4864328
C           3.9037956     0.0690938    -0.7761603
C           4.0144412    -0.0278617     0.5901317
H           3.6058158    -0.9116385     1.0718547
C           4.6482394     0.9705334     1.3770016
H           4.7043402     0.8881377     2.4554098
O           3.6451733    -2.2436174    -1.1790555
C           1.7785959     0.4176324    -2.7904408
H           0.6924151     0.2898983    -2.8806683
H           2.1711455     0.8375714    -3.7221943
H           1.9668730     1.1277607    -1.9855265
O           4.5712264     1.3666098    -2.7006418
