22
247_C8H10N2O2_0-5-11-10 (-165,) energy =    -570.8233845
N           1.9303678    -0.7818387    -2.3053436
C           1.7572994    -1.8400305    -1.3119993
H           2.1516141    -2.7932180    -1.6866584
H           0.6912094    -1.9817243    -1.0792001
H           2.2717808    -1.5868269    -0.3853647
C           2.2909054     0.5174370    -1.9475972
C           5.8534828     1.1546136     0.3793939
H           6.7541317     1.4230795     0.9219046
N           4.8764733     2.0955057     0.3261212
H           5.0030446     2.9967058     0.7732220
C           3.6227243     1.9777095    -0.3339504
C           3.4378232     0.6709438    -0.9836862
C           4.4545761    -0.2576433    -0.9412942
H           4.3366311    -1.1816798    -1.4994390
C           5.6721683    -0.0484807    -0.2400309
H           6.4483361    -0.8033967    -0.2209710
O           1.8393833     1.4858947    -2.5420111
C           1.0315319    -0.8971123    -3.4488477
H          -0.0162730    -0.7107240    -3.1709898
H           1.1121687    -1.9102824    -3.8570738
H           1.3158149    -0.1693784    -4.2084479
O           2.8426931     2.9137404    -0.2675169
22
247_C8H10N2O2_0-5-11-10 (-150,) energy =    -570.8267471
N           1.8846686    -0.7499188    -2.2986698
C           1.7238115    -1.7527363    -1.2521619
H           2.0574129    -2.7374174    -1.6041646
H           0.6670918    -1.8377119    -0.9584016
H           2.3006053    -1.4817029    -0.3687161
C           2.3795654     0.5244801    -2.0636836
C           5.8276751     1.1423269     0.4235122
H           6.6967234     1.4106134     1.0151900
N           4.8097098     2.0435894     0.4032226
H           4.8792145     2.9109432     0.9235705
C           3.5859731     1.9133999    -0.3027692
C           3.4940033     0.6591618    -1.0598909
C           4.5361236    -0.2374306    -1.0360693
H           4.4624205    -1.1360770    -1.6432460
C           5.7219530    -0.0218368    -0.2808850
H           6.5295030    -0.7433851    -0.2803822
O           2.0577206     1.4803489    -2.7565325
C           0.9718148    -0.9013136    -3.4252241
H          -0.0710333    -0.7092398    -3.1333725
H           1.0443256    -1.9254302    -3.8079250
H           1.2456270    -0.1921371    -4.2054182
O           2.7449013     2.7923782    -0.1942681
22
247_C8H10N2O2_0-5-11-10 (-135,) energy =    -570.8286887
N           1.8194959    -0.7278761    -2.3063235
C           1.6761398    -1.6743785    -1.2095140
H           1.9432451    -2.6878296    -1.5363147
H           0.6360656    -1.6959727    -0.8529316
H           2.3182754    -1.3942031    -0.3756061
C           2.4386895     0.5010991    -2.1949874
C           5.7639607     1.1684847     0.4386165
H           6.5934372     1.4507786     1.0783875
N           4.6913121     2.0076060     0.4361295
H           4.6892142     2.8405455     1.0140227
C           3.5060065     1.8452915    -0.3208360
C           3.5251762     0.6448357    -1.1600037
C           4.6090302    -0.1972834    -1.1457193
H           4.6007191    -1.0707901    -1.7937735
C           5.7550595     0.0457793    -0.3362772
H           6.6044308    -0.6260536    -0.3443630
O           2.2291640     1.4163132    -2.9808535
C           0.8815214    -0.9130547    -3.4057492
H          -0.1536705    -0.7269261    -3.0854190
H           0.9515407    -1.9432217    -3.7738674
H           1.1299470    -0.2136516    -4.2028446
O           2.5973861     2.6540560    -0.1953533
22
247_C8H10N2O2_0-5-11-10 (-120,) energy =    -570.8297154
N           1.7909194    -0.7186906    -2.3083605
C           1.6295229    -1.6000082    -1.1628923
H           1.7812570    -2.6457000    -1.4605650
H           0.6174336    -1.5088904    -0.7432054
H           2.3496720    -1.3499372    -0.3848490
C           2.5317535     0.4404281    -2.2990800
C           5.7260924     1.1605530     0.4792367
H           6.5109304     1.4560219     1.1673184
N           4.5946209     1.9216331     0.4919456
H           4.5133943     2.7102334     1.1237656
C           3.4535230     1.7242468    -0.3171060
C           3.5898125     0.5926086    -1.2326960
C           4.7251847    -0.1755149    -1.2333091
H           4.7978921    -1.0080093    -1.9298638
C           5.8236171     0.0951136    -0.3662267
H           6.7187438    -0.5142921    -0.3835936
O           2.4341022     1.2993756    -3.1669045
C           0.8233395    -0.9055408    -3.3809358
H          -0.1964112    -0.6808556    -3.0378734
H           0.8523185    -1.9458123    -3.7264371
H           1.0755118    -0.2328226    -4.1995316
O           2.4774321     2.4513960    -0.1818968
22
247_C8H10N2O2_0-5-11-10 (-105,) energy =    -570.8304964
N           1.7799241    -0.4854488    -2.1678724
C           2.2454287     0.4728033    -3.1568721
H           3.0950963     1.0347632    -2.7699880
H           1.4424259     1.1785886    -3.4045074
H           2.5535151    -0.0350733    -4.0816835
C           2.5108814    -0.8782661    -1.0749098
C           5.9026116     1.3121978     0.3906087
H           6.8135434     1.7641926     0.7678991
N           6.0586150     0.2057084    -0.3933997
H           6.9847299    -0.1511076    -0.5999450
C           5.0168501    -0.5375436    -0.9851010
C           3.6890127    -0.0202856    -0.6698570
C           3.5355479     1.0919794     0.1143492
H           2.5328080     1.4478166     0.3404832
C           4.6541201     1.7895589     0.6584969
H           4.5222136     2.6667616     1.2799122
O           2.2093819    -1.8395961    -0.3772920
C           0.6407732    -1.3005016    -2.5665847
H           0.8911772    -1.9332495    -3.4295326
H          -0.1992784    -0.6520629    -2.8424103
H           0.3603350    -1.9386032    -1.7295794
O           5.2756428    -1.4966637    -1.7047279
22
247_C8H10N2O2_0-5-11-10 (-90,) energy =    -570.8318335
N           1.7866670    -0.4693515    -2.1678339
C           2.3653345     0.3712433    -3.2038012
H           3.1035656     1.0479936    -2.7727317
H           1.5756897     0.9724875    -3.6696829
H           2.8537454    -0.2304952    -3.9822673
C           2.4295511    -0.7743668    -0.9968300
C           5.9290470     1.3122893     0.3617643
H           6.8676175     1.7413044     0.6954523
N           6.0200877     0.2905590    -0.5394444
H           6.9259478    -0.0337619    -0.8587858
C           4.9328468    -0.4070376    -1.0999754
C           3.6367908     0.0594053    -0.6234809
C           3.5480337     1.0747729     0.2910083
H           2.5687080     1.3777584     0.6538682
C           4.7069924     1.7376365     0.7912411
H           4.6272816     2.5465021     1.5070958
O           2.0311240    -1.6291426    -0.2127514
C           0.6646106    -1.3020836    -2.5785065
H           0.9650919    -2.0093868    -3.3642059
H          -0.1422482    -0.6703249    -2.9680510
H           0.3140498    -1.8619623    -1.7124306
O           5.1268040    -1.2978366    -1.9237610
22
247_C8H10N2O2_0-5-11-10 (-75,) energy =    -570.8336407
N           1.8005500    -0.4932277    -2.1872392
C           2.4393706     0.2694410    -3.2480773
H           3.0938401     1.0322232    -2.8239712
H           1.6664377     0.7736867    -3.8394500
H           3.0337862    -0.3738436    -3.9084985
C           2.3463352    -0.6827360    -0.9464464
C           5.9411933     1.2930333     0.3319652
H           6.8972697     1.7084940     0.6314826
N           5.9764113     0.3484834    -0.6520772
H           6.8608058     0.0556850    -1.0520528
C           4.8591193    -0.3215093    -1.1886673
C           3.5938694     0.0982004    -0.5991309
C           3.5660031     1.0239484     0.4114470
H           2.6120265     1.2689580     0.8714223
C           4.7486976     1.6625670     0.8813356
H           4.7124380     2.4080268     1.6661876
O           1.8331695    -1.3975007    -0.0887043
C           0.6693870    -1.3194750    -2.5847179
H           0.9747671    -2.0701306    -3.3267599
H          -0.1149943    -0.6929176    -3.0261877
H           0.2843730    -1.8247261    -1.6999726
O           5.0135705    -1.1598363    -2.0747266
22
247_C8H10N2O2_0-5-11-10 (-60,) energy =    -570.8348307
N           1.8701821    -0.5349289    -2.2470256
C           2.5134562     0.1959961    -3.3263498
H           3.1642219     0.9735097    -2.9251929
H           1.7402750     0.6814159    -3.9346465
H           3.1117884    -0.4648424    -3.9632087
C           2.3076877    -0.5718591    -0.9518986
C           5.9570639     1.3018485     0.3394958
H           6.9176916     1.7089365     0.6363872
N           5.9704148     0.4236356    -0.7020855
H           6.8454159     0.1621379    -1.1425462
C           4.8452685    -0.2300793    -1.2492593
C           3.5913840     0.1441059    -0.6043343
C           3.5914207     0.9989549     0.4703687
H           2.6470040     1.1937323     0.9712092
C           4.7775597     1.6189765     0.9486000
H           4.7565431     2.3107487     1.7816330
O           1.6784747    -1.1281815    -0.0515246
C           0.7135222    -1.3357562    -2.6196833
H           0.9896190    -2.0709063    -3.3871304
H          -0.0826786    -0.6963907    -3.0230148
H           0.3497966    -1.8509876    -1.7318942
O           5.0009045    -1.0251335    -2.1736495
22
247_C8H10N2O2_0-5-11-10 (-45,) energy =    -570.8348676
N           1.9083210    -0.5701267    -2.2195582
C           2.5259068     0.1417755    -3.3280565
H           3.1878521     0.9256396    -2.9613649
H           1.7370863     0.6176768    -3.9256030
H           3.1065930    -0.5314915    -3.9662571
C           2.2471032    -0.4351193    -0.9014118
C           5.9372770     1.3321101     0.4392569
H           6.8996278     1.7287911     0.7449488
N           5.9407412     0.5093316    -0.6445753
H           6.8114899     0.2716230    -1.1065448
C           4.8131284    -0.1249315    -1.2151463
C           3.5627725     0.2095474    -0.5386244
C           3.5766169     1.0139045     0.5771041
H           2.6331959     1.1787643     1.0895480
C           4.7628918     1.6108670     1.0775868
H           4.7467908     2.2593192     1.9448307
O           1.5144738    -0.8295303     0.0087978
C           0.7152061    -1.3349102    -2.5515152
H           0.9325923    -2.0078394    -3.3896981
H          -0.1128360    -0.6733592    -2.8432228
H           0.4131257    -1.9123640    -1.6791911
O           4.9793860    -0.8784915    -2.1712151
22
247_C8H10N2O2_0-5-11-10 (-30,) energy =    -570.8336737
N           1.9709455    -0.6198696    -2.2599239
C           2.5571712     0.0627060    -3.4072416
H           3.2620600     0.8272948    -3.0879882
H           1.7555813     0.5541437    -3.9765503
H           3.0850513    -0.6383470    -4.0602149
C           2.2256947    -0.3136462    -0.9491360
C           5.9424147     1.3176354     0.5048082
H           6.9045886     1.6932108     0.8369373
N           5.9475627     0.5580630    -0.6221238
H           6.8191263     0.3436114    -1.0939342
C           4.8218049    -0.0430659    -1.2359605
C           3.5670078     0.2520233    -0.5471648
C           3.5812256     1.0051115     0.6064118
H           2.6309616     1.1526984     1.1107491
C           4.7644743     1.5640318     1.1508617
H           4.7437167     2.1637231     2.0523947
O           1.4014932    -0.5499002    -0.0616208
C           0.7387778    -1.3438987    -2.5442220
H           0.8886403    -1.9565670    -3.4397703
H          -0.1041550    -0.6606320    -2.7237545
H           0.4898525    -1.9804171    -1.6961211
O           5.0066730    -0.7444497    -2.2272763
22
247_C8H10N2O2_0-5-11-10 (-15,) energy =    -570.8312645
N           2.0084034    -0.6693200    -2.2716132
C           2.5482029    -0.0318823    -3.4710976
H           3.3079552     0.7023168    -3.2201351
H           1.7324169     0.4779420    -4.0045314
H           3.0020239    -0.7725021    -4.1359249
C           2.2197971    -0.2116538    -0.9923600
C           5.9564424     1.2921082     0.5662436
H           6.9173271     1.6493623     0.9216870
N           5.9613440     0.6147173    -0.6105183
H           6.8315103     0.4412409    -1.1014169
C           4.8385229     0.0513810    -1.2663538
C           3.5818159     0.2807014    -0.5546750
C           3.5976507     0.9654789     0.6429904
H           2.6433698     1.0867571     1.1461094
C           4.7775026     1.4853176     1.2285433
H           4.7524393     2.0217736     2.1689618
O           1.3379161    -0.3132237    -0.1350744
C           0.7481738    -1.3701130    -2.4953551
H           0.8522914    -1.9874489    -3.3935171
H          -0.0913843    -0.6746390    -2.6394338
H           0.5223902    -2.0021603    -1.6368545
O           5.0385845    -0.5735276    -2.3050326
22
247_C8H10N2O2_0-5-11-10 (0,) energy =    -570.8279740
N           2.0023407    -0.3714010    -2.3677306
C           2.8660356    -0.9843338    -3.3792406
H           3.9125754    -0.9007494    -3.1090791
H           2.7312682    -0.4782629    -4.3405909
H           2.5972534    -2.0450373    -3.4991091
C           2.3509282    -0.2550436    -1.0357195
C           5.9897295     1.4257706     0.6024027
H           6.9144991     1.8540194     0.9748641
N           5.8332838     1.4011996    -0.7447515
H           6.5484449     1.7834127    -1.3536196
C           4.7178246     0.9023270    -1.4630103
C           3.6680710     0.3628594    -0.5990141
C           3.8532957     0.3893883     0.7703997
H           3.0487733    -0.0219917     1.3712231
C           5.0018907     0.9233499     1.4005678
H           5.1019610     0.9306509     2.4788588
O           1.5118884    -0.4835407    -0.1606636
C           0.5852601    -0.6380448    -2.6068474
H           0.3209037    -1.6869975    -2.4101688
H           0.3699776    -0.4102547    -3.6556687
H          -0.0247500    -0.0079863    -1.9596376
O           4.7499271     1.0074360    -2.6876867
22
247_C8H10N2O2_0-5-11-10 (15,) energy =    -570.8312644
N           1.9352511    -0.4367196    -2.3116595
C           2.8731302    -1.0590055    -3.2441931
H           3.8782794    -1.0860228    -2.8340401
H           2.9090940    -0.5072505    -4.1879764
H           2.5493176    -2.0912097    -3.4433358
C           2.2172602    -0.1762587    -0.9913497
C           5.9462201     1.3782765     0.5351827
H           6.8940170     1.7827285     0.8748334
N           5.7072885     1.4394907    -0.8000302
H           6.3813601     1.8675978    -1.4250246
C           4.5459482     0.9844554    -1.4726717
C           3.5603448     0.3826116    -0.5756115
C           3.8180223     0.3354527     0.7790044
H           3.0442850    -0.0963775     1.4061768
C           5.0098662     0.8281305     1.3637236
H           5.1807755     0.7711038     2.4315922
O           1.3375957    -0.2696235    -0.1308522
C           0.5345048    -0.7039175    -2.6212371
H           0.2505049    -1.7405862    -2.3889493
H           0.3783991    -0.5270408    -3.6903405
H          -0.1031499    -0.0384759    -2.0397929
O           4.4804873     1.1677185    -2.6857351
22
247_C8H10N2O2_0-5-11-10 (30,) energy =    -570.8336736
N           1.9324468    -0.4826280    -2.2710338
C           2.9257603    -1.0975824    -3.1433706
H           3.8948755    -1.1537036    -2.6523651
H           3.0446899    -0.5317779    -4.0719398
H           2.6047147    -2.1213906    -3.3819682
C           2.1624785    -0.0731790    -0.9840174
C           5.9634286     1.3240383     0.4952306
H           6.9266216     1.7035271     0.8198806
N           5.6740618     1.4636817    -0.8253053
H           6.3255051     1.9278918    -1.4484842
C           4.4823852     1.0554552    -1.4723641
C           3.5351436     0.4019906    -0.5713106
C           3.8339606     0.2874953     0.7687057
H           3.0763668    -0.1571930     1.4070399
C           5.0568787     0.7339187     1.3292088
H           5.2704084     0.6189340     2.3846692
O           1.2501034    -0.0193582    -0.1548795
C           0.5477242    -0.7348689    -2.6482407
H           0.2517980    -1.7743986    -2.4448629
H           0.4341750    -0.5425604    -3.7205533
H          -0.1074594    -0.0747135    -2.0812949
O           4.3569071     1.3041002    -2.6686745
22
247_C8H10N2O2_0-5-11-10 (45,) energy =    -570.8348677
N           1.9258067    -0.5430265    -2.2340330
C           2.9679709    -1.1301595    -3.0620845
H           3.9061893    -1.1953390    -2.5122836
H           3.1389698    -0.5441070    -3.9705478
H           2.6669396    -2.1491219    -3.3396256
C           2.1155939     0.0354211    -1.0093981
C           5.9612639     1.3042833     0.4534377
H           6.9333685     1.6667125     0.7706232
N           5.6373470     1.5108452    -0.8517936
H           6.2724563     2.0074768    -1.4667307
C           4.4274212     1.1361459    -1.4811535
C           3.5091821     0.4346898    -0.5883537
C           3.8338708     0.2614906     0.7370812
H           3.0913278    -0.2019158     1.3802824
C           5.0774629     0.6742219     1.2820390
H           5.3204690     0.5090573     2.3243993
O           1.1821439     0.2501749    -0.2327376
C           0.5613983    -0.7722047    -2.6862649
H           0.2907892    -1.8350110    -2.6115163
H           0.4661103    -0.4636153    -3.7343055
H          -0.1180724    -0.1917632    -2.0641332
O           4.2575018     1.4354653    -2.6605240
22
247_C8H10N2O2_0-5-11-10 (60,) energy =    -570.8348309
N           1.9274443    -0.6114362    -2.1798476
C           3.0047066    -1.1770658    -2.9752348
H           3.9190460    -1.2453530    -2.3848723
H           3.2101481    -0.5747061    -3.8670278
H           2.7224627    -2.1918831    -3.2814524
C           2.0947402     0.1327528    -1.0447372
C           5.9611838     1.2774506     0.4508386
H           6.9365500     1.6263198     0.7727239
N           5.6161687     1.5565921    -0.8374740
H           6.2409699     2.0890190    -1.4325929
C           4.3996160     1.2089227    -1.4631148
C           3.5004485     0.4554527    -0.5960196
C           3.8392871     0.2118273     0.7122050
H           3.1109595    -0.2848724     1.3474087
C           5.0947365     0.5968956     1.2562583
H           5.3564554     0.3753232     2.2835626
O           1.1504921     0.5134269    -0.3522968
C           0.5813264    -0.8086066    -2.6967721
H           0.3406015    -1.8787416    -2.7446271
H           0.4958643    -0.3886800    -3.7076871
H          -0.1209048    -0.3089052    -2.0310470
O           4.1998314     1.5540837    -2.6257967
22
247_C8H10N2O2_0-5-11-10 (75,) energy =    -570.8336407
N           1.8844279    -0.6516588    -2.1352902
C           2.9706253    -1.2396587    -2.9031205
H           3.8804044    -1.2786863    -2.3024448
H           3.1781253    -0.6675175    -3.8157538
H           2.6986228    -2.2654884    -3.1771618
C           2.0653189     0.2489909    -1.1206629
C           5.9502241     1.2894453     0.3912550
H           6.9266800     1.6327853     0.7153714
N           5.5727240     1.6498703    -0.8694358
H           6.1811054     2.2218809    -1.4443627
C           4.3515485     1.3171979    -1.4884852
C           3.4794255     0.5045585    -0.6496859
C           3.8489636     0.1718553     0.6277354
H           3.1491990    -0.3823889     1.2480747
C           5.1143814     0.5405259     1.1664303
H           5.4043546     0.2542689     2.1699193
O           1.1345823     0.7988387    -0.5364141
C           0.5462384    -0.8260599    -2.6821310
H           0.3146629    -1.8942899    -2.7714661
H           0.4676278    -0.3678975    -3.6777591
H          -0.1653499    -0.3487476    -2.0097442
O           4.1187101     1.7022818    -2.6327076
22
247_C8H10N2O2_0-5-11-10 (90,) energy =    -570.8318335
N           1.8840557    -0.6701192    -2.1070105
C           2.9618360    -1.3407558    -2.8164635
H           3.8906883    -1.2662258    -2.2503573
H           3.1212340    -0.9022872    -3.8109389
H           2.7147777    -2.4021176    -2.9370938
C           2.0880973     0.3455785    -1.2101773
C           5.9473506     1.2791759     0.4271574
H           6.9127936     1.6149914     0.7897384
N           5.5613885     1.7584411    -0.7917514
H           6.1592898     2.3952364    -1.3062905
C           4.3522624     1.4544887    -1.4463952
C           3.4957157     0.5487283    -0.6912119
C           3.8782580     0.0802804     0.5373480
H           3.2028300    -0.5665377     1.0922991
C           5.1340874     0.4286153     1.1155874
H           5.4330911     0.0457465     2.0836128
O           1.1816287     1.0371558    -0.7582917
C           0.5513467    -0.8393587    -2.6694630
H           0.2976721    -1.9052723    -2.7063876
H           0.4987720    -0.4320037    -3.6888681
H          -0.1604771    -0.3088319    -2.0383591
O           4.1141980     1.9233873    -2.5569018
22
247_C8H10N2O2_0-5-11-10 (105,) energy =    -570.8304964
N           1.8694826    -0.6620420    -2.1122511
C           2.9150852    -1.4666890    -2.7224315
H           3.8759748    -1.2601806    -2.2518374
H           2.9986634    -1.2530343    -3.7973726
H           2.6881755    -2.5335406    -2.6015623
C           2.1059883     0.4400765    -1.3295817
C           5.9220375     1.2747730     0.4566874
H           6.8722812     1.5938113     0.8710491
N           5.5265087     1.8961393    -0.6925669
H           6.1082780     2.6094707    -1.1172672
C           4.3327989     1.6403625    -1.3978633
C           3.4994296     0.6203683    -0.7692181
C           3.9002568    -0.0037582     0.3820718
H           3.2528669    -0.7526458     0.8329576
C           5.1370418     0.3120022     1.0181347
H           5.4439046    -0.1853141     1.9300297
O           1.2297230     1.2339091    -1.0075307
C           0.5312299    -0.8496933    -2.6552184
H           0.2453793    -1.9053820    -2.5774367
H           0.4895232    -0.5538792    -3.7128127
H          -0.1636540    -0.2322347    -2.0875227
O           4.0959615     2.2344038    -2.4446542
22
247_C8H10N2O2_0-5-11-10 (120,) energy =    -570.8297150
N           1.8514604    -0.6556429    -2.1242512
C           2.8526174    -1.5646951    -2.6592820
H           3.8408178    -1.3112286    -2.2775696
H           2.8787093    -1.5103606    -3.7570838
H           2.6200296    -2.5993155    -2.3755068
C           2.1387342     0.5254893    -1.4800767
C           5.8938909     1.2834436     0.4608135
H           6.8227997     1.5874920     0.9314024
N           5.5013947     2.0092934    -0.6247887
H           6.0674024     2.7813927    -0.9581979
C           4.3310738     1.7947167    -1.3864996
C           3.5175142     0.6876351    -0.8865231
C           3.9228078    -0.0456954     0.1984257
H           3.2933922    -0.8608647     0.5489833
C           5.1321393     0.2397450     0.8966636
H           5.4359010    -0.3417026     1.7583727
O           1.3017017     1.3989328    -1.2880190
C           0.4992874    -0.8486572    -2.6301698
H           0.1824271    -1.8825550    -2.4487539
H           0.4487189    -0.6533606    -3.7106463
H          -0.1678150    -0.1577675    -2.1164515
O           4.1088291     2.4891351    -2.3704681
22
247_C8H10N2O2_0-5-11-10 (135,) energy =    -570.8286887
N           1.8460452    -0.6472893    -2.1347202
C           2.8068021    -1.6246761    -2.6257859
H           3.8190898    -1.3447537    -2.3374072
H           2.7649399    -1.6884379    -3.7228598
H           2.5863080    -2.6206019    -2.2199546
C           2.1871706     0.5985821    -1.6472272
C           5.8496852     1.3115009     0.4779022
H           6.7485037     1.6056817     1.0095006
N           5.4702321     2.1137274    -0.5551520
H           6.0178353     2.9313593    -0.7988217
C           4.3352347     1.9304361    -1.3811858
C           3.5458942     0.7527490    -1.0128505
C           3.9403100    -0.0522880     0.0265916
H           3.3229010    -0.9089404     0.2873793
C           5.1110824     0.2089426     0.7938924
H           5.4020315    -0.4333555     1.6158806
O           1.3890154     1.5256487    -1.5964394
C           0.4803827    -0.8359494    -2.6061937
H           0.1507750    -1.8538622    -2.3677584
H           0.4080535    -0.6918295    -3.6937932
H          -0.1656836    -0.1093254    -2.1154205
O           4.1338614     2.7046052    -2.3061479
22
247_C8H10N2O2_0-5-11-10 (150,) energy =    -570.8267471
N           1.8764587    -0.6670748    -2.0754462
C           2.7831814    -1.7004748    -2.5619065
H           3.8181791    -1.4324332    -2.3532018
H           2.6750309    -1.8279577    -3.6492061
H           2.5641868    -2.6643944    -2.0847332
C           2.2884213     0.6168748    -1.7498846
C           5.8585002     1.2871096     0.5441496
H           6.7267469     1.5693741     1.1304798
N           5.4826436     2.1540919    -0.4336108
H           6.0028882     3.0099574    -0.5908784
C           4.3814490     2.0008600    -1.3149587
C           3.6280261     0.7635487    -1.0778278
C           4.0159175    -0.0980546    -0.0790138
H           3.4128799    -0.9831930     0.1068326
C           5.1502902     0.1380388     0.7458776
H           5.4338215    -0.5559320     1.5274035
O           1.5369340     1.5784663    -1.8388433
C           0.4949319    -0.8206774    -2.5149378
H           0.1527040    -1.8320314    -2.2688245
H           0.3932883    -0.6705512    -3.5997101
H          -0.1260982    -0.0837115    -2.0071887
O           4.1892654     2.8482870    -2.1732855
22
247_C8H10N2O2_0-5-11-10 (165,) energy =    -570.8233846
N           1.8865096    -0.6972131    -2.0293618
C           2.7384388    -1.7850539    -2.5060247
H           3.7910785    -1.5386629    -2.3693728
H           2.5700728    -1.9672620    -3.5780773
H           2.5196867    -2.7151393    -1.9661090
C           2.3649334     0.6040854    -1.8744268
C           5.8267191     1.3014739     0.5836982
H           6.6605073     1.5859824     1.2172746
N           5.4353443     2.2103566    -0.3454713
H           5.9078441     3.1039569    -0.4248120
C           4.3665065     2.0670000    -1.2721349
C           3.6789288     0.7715692    -1.1580251
C           4.0746711    -0.1233605    -0.1882917
H           3.5013210    -1.0366419    -0.0599825
C           5.1700775     0.1088047     0.6858498
H           5.4593252    -0.6200649     1.4327000
O           1.6587632     1.5715011    -2.1205185
C           0.4944750    -0.8139022    -2.4505488
H           0.1314833    -1.8132753    -2.1875523
H           0.3775257    -0.6697577    -3.5347017
H          -0.1031167    -0.0582808    -1.9413116
O           4.1578764     2.9745031    -2.0607370
22
247_C8H10N2O2_0-5-11-10 (180,) energy =    -570.8185081
N           1.8886890    -0.7065512    -1.9962276
C           2.6702584    -1.8591681    -2.4519131
H           3.7390576    -1.6567937    -2.3804192
H           2.4445908    -2.0890207    -3.5043500
H           2.4375931    -2.7491691    -1.8534618
C           2.4469696     0.5820667    -2.0012115
C           5.8083580     1.3121499     0.6029909
H           6.6162240     1.5972098     1.2692680
N           5.3797508     2.2568339    -0.2688382
H           5.7940633     3.1823385    -0.2738411
C           4.3273325     2.1246812    -1.2202293
C           3.7248742     0.7793757    -1.2277639
C           4.1473254    -0.1455114    -0.2945452
H           3.6169306    -1.0885187    -0.2193171
C           5.2132417     0.0828725     0.6135101
H           5.5250192    -0.6780564     1.3180793
O           1.8078041     1.5333424    -2.4243831
C           0.4916605    -0.7680196    -2.4172879
H           0.0827013    -1.7381393    -2.1155495
H           0.3781951    -0.6574829    -3.5056798
H          -0.0714677     0.0315840    -1.9357017
O           4.0702207     3.0897519    -1.9199799
