18
186_C6H12_5-0-11-12 (-165,) energy =    -235.8522094
C           1.3847710    -0.7495006    -0.2326238
C           0.9870627     0.1289296     0.9315386
H           0.3469887    -0.4102761     1.6442785
H           0.4168500     1.0094491     0.6085146
H           1.8679332     0.4814002     1.4770729
C           2.6795269    -1.0352812    -0.4418437
C           3.2672526    -1.9188594    -1.5070591
H           4.0308724    -1.3826709    -2.0871057
H           2.5202032    -2.2998737    -2.2086682
H           3.7712559    -2.7876505    -1.0600329
H           3.4105178    -0.5888519     0.2340423
C           0.2682238    -1.3549287    -1.0811079
C          -1.1079371    -0.6826246    -0.9735684
H          -1.0744436     0.3665036    -1.2898586
H          -1.5009623    -0.7104981     0.0480358
H          -1.8290991    -1.1977781    -1.6178504
H           0.1501989    -2.4134365    -0.8017752
H           0.5710940    -1.3645162    -2.1350752
18
186_C6H12_5-0-11-12 (-150,) energy =    -235.8534980
C           1.3869800    -0.7951856    -0.2007740
C           1.0032888     0.0480618     0.9943319
H           0.3746029    -0.5170722     1.6976149
H           0.4237813     0.9338982     0.7037013
H           1.8886701     0.3911595     1.5385559
C           2.6830403    -1.0178383    -0.4720497
C           3.2814422    -1.8499088    -1.5723689
H           3.9973153    -1.2617205    -2.1626662
H           2.5367486    -2.2584129    -2.2606786
H           3.8447303    -2.6979368    -1.1576473
H           3.4173797    -0.5425840     0.1806181
C           0.2468039    -1.4432271    -0.9725300
C          -1.0472862    -0.6190881    -1.0621339
H          -0.8748918     0.3495865    -1.5464102
H          -1.4804031    -0.4266854    -0.0752129
H          -1.7982502    -1.1562448    -1.6521785
H           0.0023837    -2.4016757    -0.4864448
H           0.5739554    -1.7006110    -1.9852072
18
186_C6H12_5-0-11-12 (-135,) energy =    -235.8546889
C           1.3413139    -0.8300250    -0.1473975
C           0.9705276    -0.0115210     1.0693406
H           0.3660472    -0.5998841     1.7748436
H           0.3700105     0.8686010     0.8048641
H           1.8603352     0.3404976     1.6006041
C           2.6326878    -0.9863441    -0.4807890
C           3.2286547    -1.7663027    -1.6199705
H           3.8734667    -1.1243264    -2.2356184
H           2.4807878    -2.2150664    -2.2789494
H           3.8675078    -2.5781383    -1.2445585
H           3.3703807    -0.4851473     0.1486427
C           0.1881981    -1.5012503    -0.8700080
C          -1.0074907    -0.5830111    -1.1770066
H          -0.7044601     0.2715909    -1.7935774
H          -1.4671063    -0.1905851    -0.2639903
H          -1.7808176    -1.1334979    -1.7244644
H          -0.1737819    -2.3318304    -0.2424699
H           0.5334769    -1.9585113    -1.8019919
18
186_C6H12_5-0-11-12 (-120,) energy =    -235.8553884
C           1.3007030    -0.8674053    -0.0875738
C           0.9481778    -0.0733789     1.1507817
H           0.3972445    -0.6916608     1.8739789
H           0.3015670     0.7830685     0.9182073
H           1.8429059     0.3128663     1.6491542
C           2.5802711    -0.9640680    -0.4830675
C           3.1536714    -1.6950000    -1.6654085
H           3.6875632    -1.0011889    -2.3295508
H           2.3999711    -2.2114826    -2.2655026
H           3.8909565    -2.4426675    -1.3414878
H           3.3255203    -0.4434627     0.1213521
C           0.1358458    -1.5452879    -0.7809829
C          -0.9373841    -0.5755490    -1.3095270
H          -0.5071829     0.1334261    -2.0263308
H          -1.3982049     0.0034228    -0.5021341
H          -1.7369490    -1.1263566    -1.8178616
H          -0.3424953    -2.2325622    -0.0657220
H           0.4885236    -2.1677605    -1.6086181
18
186_C6H12_5-0-11-12 (-105,) energy =    -235.8556628
C           1.2723985    -0.8934796    -0.0106985
C           0.9436094    -0.1383687     1.2574249
H           0.5141668    -0.8086911     2.0156519
H           0.1974319     0.6482026     1.0811466
H           1.8309842     0.3355713     1.6889734
C           2.5342354    -0.9382144    -0.4665566
C           3.0644701    -1.6239934    -1.6950915
H           3.5277171    -0.8972542    -2.3768891
H           2.2947407    -2.1583916    -2.2584158
H           3.8497213    -2.3464193    -1.4325834
H           3.2923045    -0.4089426     0.1137441
C           0.0940585    -1.5660684    -0.6876069
C          -0.8309764    -0.5847460    -1.4324070
H          -0.2884921    -0.0683287    -2.2321832
H          -1.2382547     0.1786068    -0.7601801
H          -1.6779834    -1.1146482    -1.8833715
H          -0.4963973    -2.0950367     0.0749252
H           0.4363851    -2.3320270    -1.3908205
18
186_C6H12_5-0-11-12 (-90,) energy =    -235.8554810
C           1.2935992    -0.9079053     0.0279213
C           1.0059431    -0.1872387     1.3244925
H           0.6527424    -0.8866621     2.0955709
H           0.2113976     0.5618611     1.1993375
H           1.8918142     0.3256153     1.7127612
C           2.5276513    -0.9074574    -0.4988768
C           2.9883291    -1.5549386    -1.7752530
H           3.3660305    -0.8028015    -2.4820102
H           2.1962693    -2.1134536    -2.2820233
H           3.8199045    -2.2478667    -1.5866866
H           3.3083823    -0.3776915     0.0497387
C           0.0922048    -1.5664128    -0.6263353
C          -0.6753907    -0.6187966    -1.5671778
H          -0.0425404    -0.3022017    -2.4033113
H          -1.0060901     0.2848509    -1.0420346
H          -1.5649823    -1.1096666    -1.9792121
H          -0.5915827    -1.9230051     0.1560235
H           0.3970101    -2.4554595    -1.1901877
18
186_C6H12_5-0-11-12 (-75,) energy =    -235.8546466
C           1.2813327    -0.9062281     0.0864900
C           1.0384491    -0.2396206     1.4198266
H           0.7066737    -0.9691415     2.1723562
H           0.2413529     0.5143761     1.3486035
H           1.9374133     0.2551598     1.8016377
C           2.4901385    -0.8660513    -0.4937558
C           2.8953553    -1.4764458    -1.8069342
H           3.1676312    -0.7026089    -2.5387584
H           2.1054337    -2.0883312    -2.2521695
H           3.7822936    -2.1127079    -1.6843003
H           3.2899828    -0.3489393     0.0387250
C           0.0570574    -1.5369471    -0.5599669
C          -0.5478398    -0.6781545    -1.6855063
H           0.1665074    -0.5375434    -2.5029371
H          -0.8274803     0.3161189    -1.3176296
H          -1.4485218    -1.1488738    -2.0974238
H          -0.7073679    -1.7133016     0.2072931
H           0.3078874    -2.5253969    -0.9669839
18
186_C6H12_5-0-11-12 (-60,) energy =    -235.8527969
C           1.2670170    -0.8950364     0.1192691
C           1.0834421    -0.3070906     1.4990623
H           0.7406333    -1.0717203     2.2108723
H           0.3153411     0.4796650     1.4983282
H           2.0107710     0.1246436     1.8893993
C           2.4562403    -0.8259444    -0.4979013
C           2.8334960    -1.3984573    -1.8375715
H           2.9615274    -0.6133290    -2.5967257
H           2.0931063    -2.1091701    -2.2165266
H           3.7941244    -1.9254846    -1.7707388
H           3.2723873    -0.3398837     0.0386831
C           0.0037066    -1.4675964    -0.5132115
C          -0.4591409    -0.7476100    -1.7919883
H           0.2869755    -0.8091175    -2.5882899
H          -0.6461249     0.3151616    -1.5979673
H          -1.3902331    -1.1886528    -2.1675943
H          -0.8083750    -1.4406344     0.2233173
H           0.1541950    -2.5322720    -0.7469864
18
186_C6H12_5-0-11-12 (-45,) energy =    -235.8503748
C           1.2705584    -0.8855196     0.1449720
C           1.1494975    -0.4015234     1.5730741
H           0.7712075    -1.2001422     2.2275521
H           0.4333714     0.4286362     1.6546265
H           2.1094635    -0.0642383     1.9768605
C           2.4529093    -0.8141997    -0.4859781
C           2.8234365    -1.3101931    -1.8603504
H           2.7934284    -0.5107338    -2.6144252
H           2.1729782    -2.1181417    -2.2076981
H           3.8497836    -1.6966671    -1.8548692
H           3.2836217    -0.3881234     0.0782052
C          -0.0413946    -1.3766490    -0.4593336
C          -0.3977911    -0.8614977    -1.8633375
H           0.2903762    -1.2182354    -2.6319558
H          -0.3866483     0.2343665    -1.8920004
H          -1.4051691    -1.1931704    -2.1415633
H          -0.8544356    -1.1001275     0.2233979
H          -0.0449014    -2.4784674    -0.4753378
18
186_C6H12_5-0-11-12 (-30,) energy =    -235.8490024
C           1.3430861    -0.8507836     0.1265975
C           1.2870562    -0.4905079     1.5977083
H           0.8799178    -1.3215879     2.1916871
H           0.6231419     0.3679715     1.7732032
H           2.2746306    -0.2443896     1.9998736
C           2.5206613    -0.7843509    -0.5149940
C           2.9015183    -1.1296108    -1.9294034
H           3.1881145    -0.2306155    -2.4938660
H           2.1162651    -1.6375756    -2.4880581
H           3.7828505    -1.7850318    -1.9271668
H           3.3667246    -0.4373788     0.0813525
C          -0.0158355    -1.2798774    -0.4149698
C          -0.3546512    -1.0522426    -1.8961109
H           0.1249187    -1.7768792    -2.5591803
H          -0.0609746    -0.0487534    -2.2229593
H          -1.4362378    -1.1497157    -2.0458452
H          -0.7708412    -0.7467547     0.1796199
H          -0.1724787    -2.3420358    -0.1673616
18
186_C6H12_5-0-11-12 (-15,) energy =    -235.8492298
C           1.3024916    -0.8271077     0.1224540
C           1.2621285    -0.5444490     1.6122650
H           0.8370744    -1.3941335     2.1657702
H           0.6222836     0.3209020     1.8365543
H           2.2575775    -0.3433787     2.0195461
C           2.4841099    -0.7667049    -0.5133074
C           2.8754099    -1.0116314    -1.9457168
H           3.3625606    -0.1208022    -2.3665376
H           2.0476391    -1.2782197    -2.5999021
H           3.6178506    -1.8203950    -2.0001206
H           3.3378139    -0.4958657     0.1113706
C          -0.0764218    -1.1824930    -0.4132902
C          -0.3591737    -1.2142345    -1.9194993
H           0.1376583    -2.0500196    -2.4212899
H          -0.0498744    -0.2855402    -2.4105368
H          -1.4363092    -1.3335539    -2.0849326
H          -0.7813662    -0.4700074     0.0419741
H          -0.3597012    -2.1552705     0.0203806
18
186_C6H12_5-0-11-12 (0,) energy =    -235.8493795
C           1.3485728    -0.8166642     0.1169705
C           1.3390719    -0.6026974     1.6191193
H           0.9274669    -1.4774312     2.1427439
H           0.7033024     0.2502772     1.8963975
H           2.3425725    -0.4164090     2.0133011
C           2.5236043    -0.7682920    -0.5322346
C           2.8909877    -0.9360577    -1.9822541
H           3.4045066    -0.0363084    -2.3494408
H           2.0487461    -1.1302748    -2.6430939
H           3.6050267    -1.7637140    -2.0978792
H           3.3949810    -0.5721998     0.0960151
C          -0.0551764    -1.0624054    -0.4126941
C          -0.3181024    -1.3085062    -1.9013007
H           0.1934981    -2.2040085    -2.2683415
H          -0.0122021    -0.4585240    -2.5196098
H          -1.3926465    -1.4577529    -2.0593995
H          -0.6711168    -0.2061893    -0.0938478
H          -0.4664378    -1.9133202     0.1535905
18
186_C6H12_5-0-11-12 (15,) energy =    -235.8492296
C           1.4051571    -0.7994315     0.1108325
C           1.4143817    -0.6415673     1.6195066
H           0.9996396    -1.5305336     2.1157644
H           0.7892548     0.2067945     1.9333464
H           2.4233869    -0.4767431     2.0093292
C           2.5748695    -0.7618157    -0.5483048
C           2.9147526    -0.8564761    -2.0113328
H           3.4338521     0.0559955    -2.3372927
H           2.0567844    -1.0002531    -2.6651179
H           3.6141069    -1.6856761    -2.1880735
H           3.4601793    -0.6320853     0.0776207
C          -0.0116805    -0.9463027    -0.4236497
C          -0.2746175    -1.4163047    -1.8587182
H           0.2524668    -2.3495794    -2.0833981
H           0.0160182    -0.6696905    -2.6038610
H          -1.3471083    -1.6017603    -1.9898596
H          -0.5261406     0.0156099    -0.2665012
H          -0.5303639    -1.6420225     0.2537027
18
186_C6H12_5-0-11-12 (30,) energy =    -235.8490025
C           1.3670315    -0.7842487     0.1144547
C           1.3579420    -0.7226107     1.6287588
H           0.9083057    -1.6272928     2.0622855
H           0.7526047     0.1235408     1.9849398
H           2.3647433    -0.6112681     2.0429688
C           2.5441246    -0.7543020    -0.5307601
C           2.8705186    -0.7385151    -1.9998031
H           3.5770285     0.0745860    -2.2142988
H           2.0035386    -0.5982842    -2.6443847
H           3.3700900    -1.6689857    -2.3057001
H           3.4318927    -0.7166686     0.1035041
C          -0.0396888    -0.8489446    -0.4695345
C          -0.2769363    -1.5535581    -1.8140250
H           0.2505060    -2.5126007    -1.8601222
H           0.0386133    -0.9535302    -2.6714099
H          -1.3471863    -1.7538623    -1.9412479
H          -0.4457991     0.1740243    -0.5206016
H          -0.6653085    -1.3538367     0.2798246
18
186_C6H12_5-0-11-12 (45,) energy =    -235.8503740
C           1.3831847    -0.7317104     0.1166764
C           1.3685494    -0.7970223     1.6279634
H           0.8764745    -1.7135388     1.9837757
H           0.7991215     0.0428103     2.0517054
H           2.3773615    -0.7655785     2.0518083
C           2.5537277    -0.7080448    -0.5393800
C           2.8083484    -0.5588819    -2.0174619
H           3.7075824     0.0467566    -2.1832367
H           1.9834460    -0.0673654    -2.5411305
H           2.9865983    -1.5257874    -2.5094590
H           3.4570951    -0.7496674     0.0706775
C          -0.0029125    -0.7546998    -0.5205653
C          -0.2138137    -1.7235654    -1.6955686
H           0.0613629    -2.7463391    -1.4126544
H           0.3738952    -1.4558366    -2.5756667
H          -1.2692587    -1.7310098    -1.9925679
H          -0.2693329     0.2629069    -0.8486759
H          -0.7324712    -1.0008091     0.2610409
18
186_C6H12_5-0-11-12 (60,) energy =    -235.8527968
C           1.3988510    -0.7119649     0.1002828
C           1.3588544    -0.8971787     1.5993847
H           0.8041079    -1.8058378     1.8742636
H           0.8389236    -0.0596305     2.0862478
H           2.3619195    -0.9681807     2.0324157
C           2.5713093    -0.6798275    -0.5510485
C           2.8028287    -0.4522178    -2.0205380
H           3.6069843     0.2796106    -2.1715119
H           1.9135242    -0.0757308    -2.5346310
H           3.1195853    -1.3725204    -2.5322431
H           3.4792089    -0.7843287     0.0448301
C           0.0364507    -0.6591968    -0.5815466
C          -0.2343147    -1.8081992    -1.5686418
H          -0.1593500    -2.7809516    -1.0684173
H           0.4773935    -1.8104534    -2.3981199
H          -1.2431930    -1.7249683    -1.9902678
H          -0.0746333     0.2952305    -1.1177934
H          -0.7472045    -0.6578909     0.1856298
18
186_C6H12_5-0-11-12 (75,) energy =    -235.8546466
C           1.4050422    -0.7049450     0.0749685
C           1.3211937    -0.9898554     1.5558259
H           0.7305945    -1.8958510     1.7540969
H           0.8175815    -0.1705944     2.0885191
H           2.3104163    -1.1273817     2.0044343
C           2.5917396    -0.6299761    -0.5460305
C           2.8465547    -0.3534535    -2.0019927
H           3.5525155     0.4792754    -2.1232702
H           1.9352799    -0.1003470    -2.5516566
H           3.3029094    -1.2216766    -2.4984344
H           3.4891252    -0.7672747     0.0593949
C           0.0691590    -0.5946075    -0.6446195
C          -0.3022125    -1.8613013    -1.4369791
H          -0.3355823    -2.7410429    -0.7834869
H           0.4305836    -2.0640949    -2.2244700
H          -1.2871314    -1.7553399    -1.9072846
H           0.0763854     0.2615524    -1.3320405
H          -0.7205932    -0.3849579     0.0878252
18
186_C6H12_5-0-11-12 (90,) energy =    -235.8554809
C           1.4170726    -0.7179312     0.0175252
C           1.3033301    -1.0741702     1.4815768
H           0.7127019    -1.9896482     1.6269698
H           0.7879364    -0.2814222     2.0423386
H           2.2841422    -1.2314933     1.9417836
C           2.6182703    -0.5850493    -0.5654567
C           2.9175585    -0.2493867    -2.0001699
H           3.5526592     0.6444698    -2.0704658
H           2.0173287    -0.0672204    -2.5938965
H           3.4739058    -1.0635679    -2.4853583
H           3.5000410    -0.7337564     0.0602599
C           0.0966894    -0.5786545    -0.7187479
C          -0.4128105    -1.9116677    -1.2982930
H          -0.5219276    -2.6721945    -0.5163713
H           0.2849752    -2.3040408    -2.0459470
H          -1.3903947    -1.7835284    -1.7778853
H           0.1817754     0.1516347    -1.5315860
H          -0.6584474    -0.1779927    -0.0287875
18
186_C6H12_5-0-11-12 (105,) energy =    -235.8556628
C           1.4218489    -0.7466621    -0.0320815
C           1.2830841    -1.1541098     1.4174712
H           0.7550535    -2.1115475     1.5226919
H           0.6976569    -0.4136479     1.9810565
H           2.2577774    -1.2565159     1.9051009
C           2.6362020    -0.5434772    -0.5669944
C           2.9872189    -0.1423948    -1.9729206
H           3.5807305     0.7822801    -1.9797823
H           2.1119809     0.0185265    -2.6081235
H           3.6070884    -0.9118134    -2.4539959
H           3.4985482    -0.6878280     0.0865080
C           0.1172525    -0.5959181    -0.7898941
C          -0.5388825    -1.9397013    -1.1603397
H          -0.7522217    -2.5452283    -0.2724736
H           0.1162636    -2.5266789    -1.8136785
H          -1.4869089    -1.7778112    -1.6862655
H           0.2649054    -0.0108655    -1.7032706
H          -0.5865889    -0.0208664    -0.1703269
18
186_C6H12_5-0-11-12 (120,) energy =    -235.8553885
C           1.4866844    -0.5198891    -0.3718436
C           1.2150794     0.5694397     0.6419909
H           0.3779179     0.3131083     1.3046729
H           0.9421249     1.5122310     0.1465522
H           2.0897770     0.7598354     1.2718727
C           2.6649800    -1.1638305    -0.3680129
C           3.1468066    -2.2628110    -1.2741397
H           4.0647141    -1.9619334    -1.7980286
H           2.4144427    -2.5557799    -2.0309383
H           3.4014300    -3.1608343    -0.6943124
H           3.3884919    -0.8669275     0.3936485
C           0.3746620    -0.7736448    -1.3699739
C          -0.9496992    -1.2396571    -0.7371431
H          -1.3612931    -0.4905168    -0.0524361
H          -0.8094365    -2.1683556    -0.1720126
H          -1.7018331    -1.4263065    -1.5120978
H           0.6873461    -1.5085518    -2.1176200
H           0.1833685     0.1597131    -1.9222424
18
186_C6H12_5-0-11-12 (135,) energy =    -235.8546894
C           1.4993306    -0.6214955    -0.3502778
C           1.1982857     0.4405973     0.6838567
H           0.4004752     0.1294915     1.3709195
H           0.8548933     1.3714736     0.2098046
H           2.0821911     0.6751576     1.2851928
C           2.7114380    -1.1983507    -0.3848954
C           3.2331209    -2.2488655    -1.3259039
H           4.0800060    -1.8632127    -1.9108753
H           2.4828617    -2.6106291    -2.0338735
H           3.6114601    -3.1165710    -0.7683344
H           3.4341435    -0.8768113     0.3673553
C           0.3945633    -0.9005252    -1.3522315
C          -0.9985633    -1.1174384    -0.7364681
H          -1.3541721    -0.2286088    -0.2050268
H          -0.9932340    -1.9526940    -0.0260716
H          -1.7303863    -1.3478570    -1.5188626
H           0.6478659    -1.7658458    -1.9719527
H           0.3317262    -0.0434494    -2.0421855
18
186_C6H12_5-0-11-12 (150,) energy =    -235.8534981
C           1.4829564    -0.6839014    -0.3195805
C           1.1527225     0.3566169     0.7267614
H           0.3591367     0.0193817     1.4060931
H           0.7917575     1.2873715     0.2656396
H           2.0302138     0.6021289     1.3330037
C           2.7270212    -1.1835538    -0.3943955
C           3.2786360    -2.1843645    -1.3717600
H           4.0674598    -1.7322905    -1.9897132
H           2.5233351    -2.5881546    -2.0512534
H           3.7434131    -3.0295282    -0.8459148
H           3.4510954    -0.8294050     0.3413936
C           0.3831683    -1.0231825    -1.3150337
C          -1.0486706    -0.9964431    -0.7573675
H          -1.3283474    -0.0029859    -0.3920683
H          -1.1711069    -1.7042386     0.0712549
H          -1.7648068    -1.2733991    -1.5390865
H           0.5700704    -2.0035998    -1.7652164
H           0.4344890    -0.3001901    -2.1452498
18
186_C6H12_5-0-11-12 (165,) energy =    -235.8522093
C           1.5029358    -0.7299767    -0.2871496
C           1.1535610     0.2765935     0.7851355
H           0.3665707    -0.0913678     1.4560114
H           0.7779022     1.2145380     0.3520510
H           2.0283844     0.5197777     1.3961331
C           2.7679620    -1.1612530    -0.4120212
C           3.3189337    -2.1147828    -1.4357680
H           4.0560115    -1.6140665    -2.0797683
H           2.5488203    -2.5364461    -2.0874439
H           3.8456202    -2.9497075    -0.9536406
H           3.5033249    -0.7811298     0.2987568
C           0.3981067    -1.1522536    -1.2534743
C          -1.0430408    -0.8821579    -0.7978077
H          -1.2281731     0.1836550    -0.6284502
H          -1.2831866    -1.4143435     0.1300625
H          -1.7490947    -1.2213427    -1.5639557
H           0.4982322    -2.2198918    -1.4832435
H           0.5525298    -0.6318382    -2.2114618
18
186_C6H12_5-0-11-12 (180,) energy =    -235.8515958
C           1.4167675    -0.7316222    -0.2505859
C           1.0293032     0.2129414     0.8639811
H           0.3098651    -0.2433758     1.5570174
H           0.5535832     1.1257638     0.4809484
H           1.9067673     0.5134431     1.4449420
C           2.7011093    -1.0846102    -0.4138018
C           3.2650311    -2.0084773    -1.4574705
H           4.0554021    -1.5114271    -2.0368070
H           2.5100162    -2.3645608    -2.1637009
H           3.7292078    -2.8907418    -0.9940826
H           3.4348716    -0.6707585     0.2793095
C           0.3151014    -1.2633449    -1.1704545
C          -1.1141535    -0.7849497    -0.8801321
H          -1.2086357     0.3030890    -0.9662408
H          -1.4474154    -1.0702366     0.1236141
H          -1.8114280    -1.2325737    -1.5970560
H           0.3224636    -2.3619106    -1.1389751
H           0.5596974    -1.0028562    -2.2098413
