17
365_C7H7NO2_0-4-11-9 (-165,) energy =    -476.1557974
C           2.2644913    -2.4058694    -1.4377066
H           3.0403815    -3.1182935    -1.1354293
H           2.4722565    -2.1063583    -2.4726027
H           1.2890725    -2.8943766    -1.4094932
C           2.2067666    -1.1946413    -0.5071668
C           5.8607826     0.9941285     0.1537623
H           6.7390049     1.5938641     0.3703155
N           4.7917060     1.1712967     0.9672592
H           4.8344879     1.8258884     1.7407883
C           3.5363158     0.5017015     0.8775856
O           2.6881310     0.7569828     1.7151133
C           3.4755930    -0.4447933    -0.2482217
C           4.5835151    -0.6198584    -1.0510645
H           4.5313182    -1.3304182    -1.8707400
C           5.7943749     0.0961268    -0.8751570
H           6.6417055    -0.0556841    -1.5319541
O           1.1475402    -0.8644051    -0.0045546
17
365_C7H7NO2_0-4-11-9 (-150,) energy =    -476.1552998
C           2.2198687    -2.4708532    -1.3050204
H           2.9219563    -3.1575355    -0.8188234
H           2.5491742    -2.3449819    -2.3441600
H           1.2190984    -2.9065666    -1.3119609
C           2.1526715    -1.1340384    -0.5725042
C           5.8378007     0.9695416     0.1674644
H           6.7201188     1.5547786     0.4052795
N           4.7877561     1.0873647     1.0193314
H           4.8518057     1.6838859     1.8369380
C           3.5325381     0.4280571     0.9077465
O           2.7014912     0.6031556     1.7835425
C           3.4428903    -0.4266439    -0.2855621
C           4.5311581    -0.5572682    -1.1189549
H           4.4566387    -1.2106338    -1.9841072
C           5.7480222     0.1462431    -0.9192181
H           6.5799856     0.0430055    -1.6045542
O           1.0824319    -0.6687027    -0.2270248
17
365_C7H7NO2_0-4-11-9 (-135,) energy =    -476.1546325
C           2.2181638    -2.5087636    -1.2137525
H           2.6191053    -3.1683258    -0.4338676
H           2.8754027    -2.6097075    -2.0850690
H           1.2096786    -2.8315913    -1.4799318
C           2.1610924    -1.0816202    -0.6907750
C           5.8408330     0.9856005     0.1620421
H           6.7177379     1.5634366     0.4347065
N           4.8035806     1.0124093     1.0409492
H           4.8746612     1.5387047     1.9047263
C           3.5613965     0.3449464     0.8909817
O           2.7347817     0.4182350     1.7873091
C           3.4645267    -0.4041574    -0.3681085
C           4.5339774    -0.4490758    -1.2297444
H           4.4504886    -1.0232935    -2.1493330
C           5.7442647     0.2578227    -0.9887600
H           6.5651102     0.2293082    -1.6944481
O           1.1016896    -0.5136038    -0.5076938
17
365_C7H7NO2_0-4-11-9 (-120,) energy =    -476.1538855
C           2.1974450    -2.5180371    -1.1127781
H           2.4491238    -3.0593350    -0.1915107
H           2.9695699    -2.7705029    -1.8490646
H           1.2185750    -2.8452049    -1.4699708
C           2.1638054    -1.0310084    -0.8139956
C           5.8400167     0.9867225     0.1556198
H           6.7152790     1.5474550     0.4659686
N           4.8087078     0.9385915     1.0445212
H           4.8873926     1.3926866     1.9476357
C           3.5763525     0.2723642     0.8517402
O           2.7478235     0.2569337     1.7521053
C           3.4740048    -0.3709600    -0.4593530
C           4.5296931    -0.3461393    -1.3340029
H           4.4386104    -0.8528099    -2.2927774
C           5.7384205     0.3505011    -1.0467557
H           6.5541153     0.3827719    -1.7583081
O           1.1324444    -0.3894488    -0.8232290
17
365_C7H7NO2_0-4-11-9 (-105,) energy =    -476.1534384
C           2.1632876    -2.5274675    -0.9591670
H           2.3507688    -2.9264798     0.0462515
H           2.9602159    -2.9112930    -1.6077506
H           1.1891322    -2.8710803    -1.3141920
C           2.1911439    -1.0150414    -0.8991746
C           5.8547502     0.9710201     0.1778065
H           6.7253786     1.5164186     0.5256620
N           4.8326375     0.8347307     1.0712145
H           4.9098345     1.2252088     2.0036737
C           3.6119245     0.1703825     0.8309133
O           2.7766154     0.0730000     1.7233641
C           3.5094499    -0.3717479    -0.5205874
C           4.5457278    -0.2535409    -1.4070116
H           4.4484876    -0.6779898    -2.4045780
C           5.7493351     0.4335297    -1.0707335
H           6.5575098     0.5361564    -1.7842756
O           1.2182725    -0.3273954    -1.1313553
17
365_C7H7NO2_0-4-11-9 (-90,) energy =    -476.1543807
C           2.1245070    -2.5275165    -0.8192540
H           2.2504771    -2.7712542     0.2430879
H           2.9254304    -3.0402658    -1.3665275
H           1.1493606    -2.8750216    -1.1678046
C           2.2418180    -1.0313207    -1.0035903
C           5.8588464     0.9635273     0.1995587
H           6.7177099     1.5014481     0.5858709
N           4.8450613     0.7322260     1.0844652
H           4.9143021     1.0582733     2.0419873
C           3.6445166     0.0567969     0.7941437
O           2.7993575    -0.1155591     1.6691473
C           3.5558910    -0.3980618    -0.5869938
C           4.5679067    -0.1585175    -1.4757462
H           4.4647122    -0.4886076    -2.5074357
C           5.7577232     0.5260728    -1.0876554
H           6.5577659     0.7084522    -1.7944982
O           1.3651526    -0.3513952    -1.4964744
17
365_C7H7NO2_0-4-11-9 (-75,) energy =    -476.1569293
C           2.0745365    -2.5057722    -0.6876638
H           2.1239295    -2.5942575     0.4034935
H           2.8714844    -3.1339141    -1.1061642
H           1.1037194    -2.8488290    -1.0522030
C           2.3041464    -1.0677923    -1.0955372
C           5.8627120     0.9665448     0.2001456
H           6.7129772     1.5026561     0.6075516
N           4.8746689     0.6448204     1.0844732
H           4.9452673     0.9209559     2.0575410
C           3.6873209    -0.0441154     0.7696336
O           2.8530706    -0.2701074     1.6440340
C           3.5953488    -0.4285483    -0.6320946
C           4.5701819    -0.0705198    -1.5253194
H           4.4411018    -0.3174424    -2.5766376
C           5.7477963     0.6173702    -1.1134983
H           6.5265278     0.8750296    -1.8207065
O           1.5572560    -0.4624445    -1.8399409
17
365_C7H7NO2_0-4-11-9 (-60,) energy =    -476.1602424
C           2.0164079    -2.4706724    -0.5894944
H           1.9375771    -2.4042837     0.5003230
H           2.8213831    -3.1812932    -0.8184109
H           1.0798614    -2.8259146    -1.0246409
C           2.3722000    -1.1202280    -1.1704059
C           5.8677581     0.9795193     0.1883539
H           6.7108880     1.5215202     0.6031052
N           4.9196114     0.5711656     1.0771486
H           5.0057778     0.7982203     2.0616870
C           3.7450463    -0.1433386     0.7591369
O           2.9490840    -0.4277712     1.6517629
C           3.6276840    -0.4576294    -0.6596354
C           4.5609744     0.0014879    -1.5558507
H           4.3963200    -0.1854353    -2.6140033
C           5.7248154     0.7045507    -1.1413793
H           6.4717966     1.0317280    -1.8540219
O           1.7614476    -0.6237948    -2.1007806
17
365_C7H7NO2_0-4-11-9 (-45,) energy =    -476.1632203
C           1.9550576    -2.4104898    -0.5223724
H           1.7279531    -2.1854897     0.5234894
H           2.7565196    -3.1610926    -0.5200851
H           1.0803470    -2.8099231    -1.0396107
C           2.4392297    -1.1698220    -1.2391095
C           5.8755049     1.0129378     0.1445399
H           6.7127584     1.5648485     0.5585155
N           4.9707737     0.5315945     1.0389580
H           5.0830924     0.7105457     2.0308033
C           3.8122548    -0.2163449     0.7277179
O           3.0682167    -0.5660067     1.6412768
C           3.6570432    -0.4660502    -0.7017797
C           4.5518589     0.0668871    -1.6007425
H           4.3567374    -0.0859315    -2.6588213
C           5.6998625     0.7937436    -1.1927073
H           6.4126602     1.1780797    -1.9117572
O           1.9459110    -0.7954918    -2.2914794
17
365_C7H7NO2_0-4-11-9 (-30,) energy =    -476.1654498
C           1.8823297    -2.3516520    -0.4847090
H           1.4236879    -1.9640452     0.4296088
H           2.6546623    -3.0585161    -0.1587309
H           1.1418233    -2.8601709    -1.1053947
C           2.5014267    -1.2289062    -1.2868852
C           5.8648598     1.0227349     0.1664776
H           6.6902372     1.5822725     0.5941182
N           5.0021253     0.4538962     1.0484996
H           5.1331400     0.5742476     2.0469514
C           3.8647041    -0.3221926     0.7192334
O           3.1663271    -0.7577325     1.6311486
C           3.6801124    -0.4882424    -0.7190647
C           4.5422284     0.1237092    -1.6024258
H           4.3304637     0.0105645    -2.6621770
C           5.6662866     0.8742318    -1.1783086
H           6.3474894     1.3264831    -1.8884406
O           2.1159080    -0.9646517    -2.4169198
17
365_C7H7NO2_0-4-11-9 (-15,) energy =    -476.1668293
C           1.8004344    -2.3057526    -0.4502078
H           1.2703971    -1.7795947     0.3496655
H           2.4908381    -2.9902855     0.0541844
H           1.0981422    -2.8608500    -1.0755612
C           2.5523440    -1.3292129    -1.3261596
C           5.8284520     1.0457186     0.1369521
H           6.6366250     1.6302444     0.5642419
N           5.0160787     0.4077921     1.0176562
H           5.1708342     0.4935361     2.0163474
C           3.9063283    -0.4104336     0.6896218
O           3.2614644    -0.9129595     1.6061034
C           3.6879431    -0.5315719    -0.7486460
C           4.5107364     0.1382468    -1.6297523
H           4.2847348     0.0332637    -2.6873838
C           5.6040404     0.9313166    -1.2078905
H           6.2459542     1.4377407    -1.9180982
O           2.2778052    -1.2064266    -2.5126923
17
365_C7H7NO2_0-4-11-9 (0,) energy =    -476.1672686
C           1.7480229    -2.2325301    -0.4499047
H           1.2309528    -1.5972813     0.2763450
H           2.3386723    -2.9362842     0.1453674
H           1.0287718    -2.7669103    -1.0740053
C           2.6393957    -1.4075861    -1.3501314
C           5.8156917     1.0773554     0.1540530
H           6.6015236     1.6856689     0.5898100
N           5.0554843     0.3636637     1.0223016
H           5.2293812     0.4128829     2.0203381
C           3.9785000    -0.4938057     0.6827379
O           3.3861662    -1.0700623     1.5911892
C           3.7299768    -0.5614803    -0.7543691
C           4.5129520     0.1703218    -1.6232346
H           4.2816475     0.0805027    -2.6811389
C           5.5702508     1.0040144    -1.1902399
H           6.1715304     1.5695481    -1.8913528
O           2.4865945    -1.4176156    -2.5649996
17
365_C7H7NO2_0-4-11-9 (15,) energy =    -476.1668293
C           1.6861918    -2.1677856    -0.4369039
H           1.1966121    -1.4272506     0.2046361
H           2.1743177    -2.8712205     0.2446338
H           0.9508976    -2.6830477    -1.0584036
C           2.7015355    -1.5094093    -1.3434941
C           5.7852741     1.0978242     0.1419833
H           6.5509279     1.7336695     0.5742617
N           5.0897601     0.3187757     1.0090962
H           5.2969926     0.3410877     2.0016901
C           4.0474357    -0.5808781     0.6732057
O           3.5194637    -1.2245823     1.5760960
C           3.7520892    -0.6090406    -0.7561144
C           4.4807384     0.1744740    -1.6262695
H           4.2354933     0.0927602    -2.6816655
C           5.5040830     1.0520263    -1.1962573
H           6.0546244     1.6688099    -1.8958258
O           2.6574982    -1.6650218    -2.5568164
17
365_C7H7NO2_0-4-11-9 (30,) energy =    -476.1654498
C           1.5101998    -1.5883779    -1.2120417
H           1.6488418    -0.9958188    -2.1242231
H           0.9334591    -0.9584803    -0.5285501
H           0.9714771    -2.5107348    -1.4383830
C           2.8498598    -1.9432077    -0.6064578
C           5.8617805     1.0291829     0.1604769
H           6.5733709     1.8220877     0.3657811
N           4.5497054     1.3817417     0.1646810
H           4.2739458     2.3361845     0.3685164
C           3.4542432     0.5196384    -0.0826902
O           2.3177358     0.9824950    -0.0266969
C           3.8580166    -0.8528939    -0.3716387
C           5.1897805    -1.2040300    -0.3374878
H           5.4326032    -2.2491172    -0.5093973
C           6.2221128    -0.2654694    -0.0924218
H           7.2654480    -0.5558078    -0.0950931
O           3.1593732    -3.1041582    -0.3788048
17
365_C7H7NO2_0-4-11-9 (45,) energy =    -476.1632202
C           1.5563899    -1.5927254    -1.3015683
H           1.8379665    -1.2771940    -2.3149326
H           1.0289451    -0.7518999    -0.8423937
H           0.9180304    -2.4768129    -1.3571277
C           2.8076461    -1.9250926    -0.5197194
C           5.8751198     1.0138966     0.1438034
H           6.5984520     1.7994947     0.3351273
N           4.5647494     1.3642471     0.2457274
H           4.3040182     2.3083144     0.5086950
C           3.4578396     0.5104791     0.0352321
O           2.3241126     0.9598374     0.1874988
C           3.8426608    -0.8465294    -0.3393728
C           5.1707281    -1.2019611    -0.3918811
H           5.4076198    -2.2407135    -0.6059627
C           6.2179201    -0.2684244    -0.1806454
H           7.2588397    -0.5569210    -0.2586364
O           3.0496691    -3.0586218    -0.1356515
17
365_C7H7NO2_0-4-11-9 (60,) energy =    -476.1602424
C           1.6058627    -1.6285125    -1.3919075
H           2.0085075    -1.5139941    -2.4068626
H           1.1026776    -0.6919855    -1.1310529
H           0.9039112    -2.4648135    -1.3688176
C           2.7482498    -1.8911711    -0.4360261
C           5.8349174     1.0469706     0.1241999
H           6.5579003     1.8353347     0.3042822
N           4.5263852     1.3775923     0.3089325
H           4.2702512     2.3065212     0.6248124
C           3.4251386     0.5127670     0.1340593
O           2.2897253     0.9243722     0.3635314
C           3.8054112    -0.8218999    -0.3126235
C           5.1286665    -1.1624361    -0.4469880
H           5.3738822    -2.1896953    -0.7045694
C           6.1745800    -0.2175857    -0.2627831
H           7.2133471    -0.4887185    -0.4053828
O           2.9014904    -2.9614532     0.1261770
17
365_C7H7NO2_0-4-11-9 (75,) energy =    -476.1569294
C           1.6775222    -1.6918544    -1.4634616
H           2.1934714    -1.7435832    -2.4309049
H           1.2029064    -0.7064599    -1.3953944
H           0.9240529    -2.4803952    -1.4038330
C           2.6866659    -1.8520108    -0.3486319
C           5.8201447     1.0544636     0.1167833
H           6.5496012     1.8387945     0.2873117
N           4.5218217     1.3687226     0.3949249
H           4.2811514     2.2837647     0.7594366
C           3.4207712     0.5027265     0.2487892
O           2.2900053     0.8846728     0.5439437
C           3.7814328    -0.8100216    -0.2686096
C           5.0897842    -1.1358408    -0.5102029
H           5.3323204    -2.1449498    -0.8354401
C           6.1406842    -0.1881357    -0.3457680
H           7.1701882    -0.4447995    -0.5629985
O           2.7030291    -2.8116208     0.3978918
17
365_C7H7NO2_0-4-11-9 (90,) energy =    -476.1543807
C           1.7636574    -1.7872372    -1.5245991
H           2.3909785    -1.9438961    -2.4110667
H           1.2908073    -0.8030096    -1.6320992
H           0.9976684    -2.5636508    -1.4645948
C           2.6149257    -1.7962460    -0.2749581
C           5.8159115     1.0518227     0.1155639
H           6.5616876     1.8217335     0.2807935
N           4.5384527     1.3611319     0.4853547
H           4.3259173     2.2650963     0.8923269
C           3.4227274     0.5117604     0.3607101
O           2.3076099     0.8929568     0.7083224
C           3.7451287    -0.7859504    -0.2174735
C           5.0266112    -1.0989483    -0.5797839
H           5.2430689    -2.0844745    -0.9870633
C           6.0957838    -0.1669836    -0.4272875
H           7.1075084    -0.4186793    -0.7205749
O           2.4551379    -2.5864606     0.6326786
17
365_C7H7NO2_0-4-11-9 (105,) energy =    -476.1534384
C           1.8544552    -1.8938486    -1.5628735
H           2.5811405    -2.1335520    -2.3487160
H           1.3835374    -0.9427337    -1.8436642
H           1.0938196    -2.6753060    -1.5008318
C           2.5376725    -1.7254349    -0.2224797
C           5.8255412     1.0311114     0.1206348
H           6.6004512     1.7727867     0.2815359
N           4.5811193     1.3506627     0.5797302
H           4.4148689     2.2403371     1.0366252
C           3.4330799     0.5372935     0.4813491
O           2.3521561     0.9435525     0.8939624
C           3.6922036    -0.7463034    -0.1637836
C           4.9364053    -1.0544384    -0.6439997
H           5.0998149    -2.0133503    -1.1324015
C           6.0398929    -0.1620678    -0.5032532
H           7.0245988    -0.4214170    -0.8719173
O           2.1936085    -2.3273223     0.7738113
17
365_C7H7NO2_0-4-11-9 (120,) energy =    -476.1538855
C           1.9518617    -2.0140941    -1.5929376
H           2.7569441    -2.3340952    -2.2648569
H           1.5027064    -1.1181624    -2.0408718
H           1.1959487    -2.7984842    -1.5145820
C           2.4722405    -1.6632904    -0.2117061
C           5.8308196     1.0057773     0.1375357
H           6.6325483     1.7172927     0.3042651
N           4.6212712     1.3231145     0.6782297
H           4.4978058     2.1917202     1.1864520
C           3.4427346     0.5465284     0.5905412
O           2.4009151     0.9684527     1.0742228
C           3.6384539    -0.7079818    -0.1382959
C           4.8502098    -1.0031587    -0.7080541
H           4.9642253    -1.9303925    -1.2661740
C           5.9832688    -0.1513567    -0.5685851
H           6.9409808    -0.4102858    -1.0026932
O           1.9651361    -2.0968929     0.8032933
17
365_C7H7NO2_0-4-11-9 (135,) energy =    -476.1546325
C           2.0159424    -2.0937216    -1.6092140
H           2.8589687    -2.5755842    -2.1176026
H           1.6904177    -1.2635082    -2.2485702
H           1.1995462    -2.8104644    -1.5001767
C           2.3937607    -1.5585274    -0.2365079
C           5.8281632     1.0117644     0.1371638
H           6.6552463     1.6917396     0.3125747
N           4.6523896     1.3226060     0.7454581
H           4.5728490     2.1577344     1.3150058
C           3.4471044     0.5794827     0.6675352
O           2.4488677     1.0046967     1.2285903
C           3.5764769    -0.6335145    -0.1496195
C           4.7616087    -0.9156073    -0.7852653
H           4.8338361    -1.8091721    -1.4006221
C           5.9205878    -0.1034942    -0.6444953
H           6.8521381    -0.3589925    -1.1339153
O           1.7481162    -1.8390804     0.7549190
17
365_C7H7NO2_0-4-11-9 (150,) energy =    -476.1552998
C           2.0740229    -2.1714442    -1.5903206
H           2.8376095    -2.9360581    -1.7810996
H           2.0977310    -1.4669882    -2.4293845
H           1.1000501    -2.6621113    -1.5449598
C           2.3121535    -1.4608661    -0.2612079
C           5.8161567     1.0141146     0.1250629
H           6.6659258     1.6660837     0.2993397
N           4.6835041     1.3012910     0.8155560
H           4.6504248     2.0969461     1.4434565
C           3.4551542     0.5868915     0.7564057
O           2.5086277     0.9987692     1.4066063
C           3.5136627    -0.5715631    -0.1475266
C           4.6622467    -0.8258225    -0.8630975
H           4.6819341    -1.6723174    -1.5442632
C           5.8426603    -0.0475726    -0.7345173
H           6.7400833    -0.2850015    -1.2919818
O           1.5410607    -1.6090494     0.6687192
17
365_C7H7NO2_0-4-11-9 (165,) energy =    -476.1557973
C           2.1956958    -2.2645333    -1.5723775
H           2.9419440    -3.0687229    -1.5558448
H           2.3445426    -1.6915184    -2.4945631
H           1.2023209    -2.7162384    -1.5793254
C           2.2984164    -1.3823525    -0.3283985
C           5.8511883     1.0140479     0.1348664
H           6.7136363     1.6461697     0.3205003
N           4.7472497     1.2625386     0.8803047
H           4.7431375     2.0133842     1.5621259
C           3.5045853     0.5668583     0.8154326
O           2.5976797     0.9423670     1.5383153
C           3.5146493    -0.5246577    -0.1722164
C           4.6451526    -0.7459509    -0.9309446
H           4.6365185    -1.5457975    -1.6655619
C           5.8369101     0.0092045    -0.7922615
H           6.7118849    -0.1992255    -1.3950664
O           1.4066440    -1.3953481     0.5011822
17
365_C7H7NO2_0-4-11-9 (180,) energy =    -476.1559082
C           2.2277366    -2.3426247    -1.5045690
H           2.9943682    -3.1086266    -1.3373941
H           2.4055197    -1.9035685    -2.4935548
H           1.2451666    -2.8170491    -1.4985494
C           2.2363151    -1.2819054    -0.4028706
C           5.8600643     0.9956352     0.1279016
H           6.7361079     1.6069935     0.3195863
N           4.7815153     1.2206035     0.9150433
H           4.8090937     1.9297675     1.6396872
C           3.5246724     0.5480626     0.8493797
O           2.6573909     0.8832846     1.6371976
C           3.4839623    -0.4812786    -0.2032396
C           4.5983928    -0.6904248    -0.9906338
H           4.5593825    -1.4506681    -1.7646749
C           5.8054484     0.0373258    -0.8463240
H           6.6602192    -0.1533965    -1.4829977
O           1.2408839    -1.1145193     0.2794778
