19
393_C7H10N2_0-7-15-16 (-165,) energy =    -382.2730213
C           0.9482349    -0.1179397     0.4526805
H           0.8301657     0.9512675     0.6987958
C          -0.3352000    -0.6500175    -0.1802544
H          -1.1847396    -0.4998139     0.4932432
H          -0.2492653    -1.7207716    -0.3939530
H          -0.5572658    -0.1290927    -1.1196298
H           1.1280933    -0.6410610     1.4014880
N           2.0792277    -0.3372748    -0.4310745
H           1.8882802    -0.3948821    -1.4236594
C           5.9803960     0.8353725     0.2317194
H           7.0211897     1.1231624     0.3374672
C           5.0986321     0.8507692     1.3154593
H           5.4413106     1.1557402     2.3012625
C           3.7733866     0.4773193     1.1336539
H           3.0758547     0.4848878     1.9638884
C           3.3607151     0.0851641    -0.1588209
N           4.2012842     0.0767852    -1.2123651
C           5.4688648     0.4410746    -1.0037676
H           6.1123717     0.4186914    -1.8829174
19
393_C7H10N2_0-7-15-16 (-150,) energy =    -382.2725326
C           0.9498360    -0.0716651     0.4121867
H           0.8867720     1.0253876     0.5102944
C          -0.3342033    -0.6176595    -0.2069163
H          -1.2013779    -0.3367419     0.3991716
H          -0.2984331    -1.7099871    -0.2757109
H          -0.4883344    -0.2159521    -1.2160716
H           1.0576759    -0.4740971     1.4271875
N           2.1060812    -0.4720927    -0.3819031
H           1.9386216    -0.5065124    -1.3823069
C           5.9626965     0.8847197     0.2344368
H           6.9885899     1.2258457     0.3269959
C           5.1121782     0.8022916     1.3403229
H           5.4657240     1.0794058     2.3304181
C           3.8058482     0.3616784     1.1739734
H           3.1340519     0.2824223     2.0217290
C           3.3786644     0.0078155    -0.1234362
N           4.1853605     0.1013428    -1.1971769
C           5.4402378     0.5182408    -1.0043066
H           6.0587385     0.5710292    -1.8997747
19
393_C7H10N2_0-7-15-16 (-135,) energy =    -382.2710519
C           0.9396319     0.0273803     0.3357577
H           0.8779275     1.1206424     0.2021360
C          -0.3388445    -0.6363108    -0.1690067
H          -1.2119012    -0.2392565     0.3592680
H          -0.2996343    -1.7195214    -0.0146691
H          -0.4850430    -0.4498780    -1.2402621
H           1.0388896    -0.1551626     1.4116008
N           2.1076437    -0.5338438    -0.3478570
H           1.9726808    -0.5805831    -1.3549844
C           5.9449795     0.9132730     0.2361308
H           6.9613328     1.2838261     0.3214260
C           5.1398581     0.7118999     1.3613980
H           5.5217761     0.9200027     2.3577677
C           3.8464533     0.2333892     1.2033308
H           3.2117563     0.0484480     2.0635150
C           3.3820875    -0.0278810    -0.1018437
N           4.1426402     0.1829631    -1.1904255
C           5.3928200     0.6236207    -1.0090391
H           5.9767319     0.7656525    -1.9177580
19
393_C7H10N2_0-7-15-16 (-120,) energy =    -382.2690505
C           0.9447667     0.1143724     0.2191144
H           0.8913710     1.1510964    -0.1540215
C          -0.3425181    -0.6322886    -0.1186788
H          -1.2098828    -0.1161134     0.3067829
H          -0.3122926    -1.6529461     0.2759670
H          -0.4912885    -0.6927065    -1.2039775
H           1.0586205     0.1753052     1.3067307
N           2.1100218    -0.5958163    -0.3304300
H           2.0111438    -0.6910553    -1.3400254
C           5.9160032     0.9464037     0.2632698
H           6.9196361     1.3490442     0.3553591
C           5.1532537     0.6148874     1.3879514
H           5.5573917     0.7481056     2.3882776
C           3.8779263     0.0945691     1.2174790
H           3.2745317    -0.2054461     2.0682211
C           3.3862655    -0.0658040    -0.0923666
N           4.1041965     0.2683588    -1.1763875
C           5.3442555     0.7392879    -0.9887937
H           5.8990036     0.9778879    -1.8953531
19
393_C7H10N2_0-7-15-16 (-105,) energy =    -382.2666352
C           0.9614477     0.1439741     0.1396314
H           0.9663625     1.1087240    -0.3950921
C          -0.3519873    -0.5906220    -0.1107500
H          -1.2031773     0.0235420     0.2029630
H          -0.3774836    -1.5356017     0.4412936
H          -0.4809290    -0.8174857    -1.1764320
H           1.0615291     0.3725838     1.2067595
N           2.1081274    -0.6971032    -0.2566630
H           2.0297251    -0.8848200    -1.2563617
C           5.8692511     0.9908823     0.2656362
H           6.8551334     1.4382623     0.3441923
C           5.1743218     0.5488664     1.3957818
H           5.6144922     0.6387625     2.3855982
C           3.9211956    -0.0283691     1.2374689
H           3.3634515    -0.4184553     2.0829531
C           3.3856548    -0.1296152    -0.0584934
N           4.0355636     0.3117061    -1.1452215
C           5.2581692     0.8345211    -0.9754590
H           5.7635714     1.1581909    -1.8843490
19
393_C7H10N2_0-7-15-16 (-90,) energy =    -382.2640252
C           0.9837274     0.1676907     0.0682039
H           1.0560778     1.0440802    -0.5972566
C          -0.3509868    -0.5423611    -0.1337997
H          -1.1849741     0.1437301     0.0508358
H          -0.4413307    -1.3963682     0.5451252
H          -0.4486855    -0.9150022    -1.1612101
H           1.0565397     0.5417197     1.0963869
N           2.1074720    -0.7693288    -0.1502644
H           2.0517456    -1.0714489    -1.1242519
C           5.8367762     1.0308796     0.2701612
H           6.8077942     1.5131069     0.3268179
C           5.2258488     0.4863821     1.4026688
H           5.7161682     0.5297198     2.3717801
C           3.9875621    -0.1316083     1.2686644
H           3.4855886    -0.5980408     2.1101042
C           3.3885838    -0.1708490     0.0004895
N           3.9574622     0.3685560    -1.0867011
C           5.1649030     0.9330710    -0.9463967
H           5.6072060     1.3387873    -1.8552430
19
393_C7H10N2_0-7-15-16 (-75,) energy =    -382.2628947
C           1.0661877     0.0506394    -0.1118952
H           1.1034564     1.0350512    -0.5884238
C          -0.0981306    -0.7611910    -0.6704231
H          -1.0499808    -0.2560458    -0.4725996
H          -0.1491540    -1.7559097    -0.2087969
H           0.0107299    -0.8952895    -1.7511448
H           0.9287677     0.2190621     0.9704151
N           2.3504105    -0.6157663    -0.3998316
H           2.3550205    -1.5184381     0.0728537
C           5.8592108     1.4372294     0.4735812
H           6.7764905     1.9965093     0.6286894
C           5.5220926     0.3469597     1.2757293
H           6.1730474     0.0311729     2.0870676
C           4.3290730    -0.3268184     1.0326906
H           4.0271566    -1.1669580     1.6531278
C           3.5114442     0.0992958    -0.0291703
N           3.8431492     1.1332603    -0.8175667
C           4.9740773     1.7902409    -0.5458460
H           5.1969295     2.6349287    -1.1969192
19
393_C7H10N2_0-7-15-16 (-60,) energy =    -382.2667559
C           1.0490462     0.0890716    -0.1506794
H           1.1616476     1.0121850    -0.7249191
C          -0.0840370    -0.7580893    -0.7211446
H          -1.0344782    -0.2160543    -0.6651684
H          -0.2047284    -1.6950018    -0.1618322
H           0.1137881    -1.0119896    -1.7672854
H           0.8223763     0.3776427     0.8898921
N           2.3313394    -0.6287173    -0.2410753
H           2.2858556    -1.4841381     0.3078328
C           5.8654458     1.4254445     0.4753232
H           6.7851406     1.9891956     0.5945272
C           5.5997681     0.2851074     1.2359133
H           6.3131630    -0.0663415     1.9771015
C           4.4010307    -0.3922469     1.0468958
H           4.1578406    -1.2713551     1.6385715
C           3.4975352     0.0836211     0.0768828
N           3.7569044     1.1684672    -0.6706343
C           4.9008889     1.8224248    -0.4501869
H           5.0629959     2.7068174    -1.0656204
19
393_C7H10N2_0-7-15-16 (-45,) energy =    -382.2698545
C           1.0359612     0.1246347    -0.2035628
H           1.2087276     0.9665307    -0.8771076
C          -0.0702447    -0.7773553    -0.7429682
H          -1.0102411    -0.2212143    -0.8276395
H          -0.2518507    -1.6323958    -0.0786468
H           0.1954994    -1.1671049    -1.7308136
H           0.7413775     0.5459114     0.7724860
N           2.3023701    -0.6111338    -0.1044335
H           2.2133005    -1.4230531     0.4993573
C           5.8709038     1.4164800     0.4615113
H           6.7957275     1.9771603     0.5502428
C           5.6583467     0.2318412     1.1729380
H           6.4217804    -0.1580692     1.8415476
C           4.4535579    -0.4413079     1.0294423
H           4.2557072    -1.3573524     1.5807221
C           3.4806830     0.0875183     0.1546686
N           3.6835612     1.2183334    -0.5403317
C           4.8441778     1.8596580    -0.3688963
H           4.9603951     2.7788747    -0.9423096
19
393_C7H10N2_0-7-15-16 (-30,) energy =    -382.2719129
C           1.0439903     0.1552435    -0.3065364
H           1.2571638     0.8581735    -1.1142692
C          -0.0686412    -0.8087747    -0.7086230
H          -0.9908064    -0.2585049    -0.9236596
H          -0.2919704    -1.5236766     0.0943666
H           0.2125222    -1.3781611    -1.6006546
H           0.7319150     0.7575232     0.5629172
N           2.2800055    -0.5770986    -0.0286837
H           2.1451969    -1.3619655     0.5989574
C           5.8713441     1.4136203     0.4770424
H           6.7989215     1.9704159     0.5603846
C           5.6951570     0.1779078     1.1110273
H           6.4927215    -0.2561532     1.7088997
C           4.4891167    -0.4907969     0.9778522
H           4.3235487    -1.4501551     1.4619939
C           3.4696791     0.0989901     0.1959847
N           3.6316772     1.2827496    -0.4162756
C           4.8044308     1.9103855    -0.2648835
H           4.8894970     2.8697901    -0.7743837
19
393_C7H10N2_0-7-15-16 (-15,) energy =    -382.2727926
C           1.0668501     0.1688233    -0.3943036
H           1.3296438     0.7223752    -1.2990937
C          -0.0630558    -0.8184382    -0.6746335
H          -0.9569484    -0.2866221    -1.0166768
H          -0.3397675    -1.3799171     0.2275292
H           0.2276725    -1.5383400    -1.4472384
H           0.7450164     0.9196836     0.3453905
N           2.2603520    -0.5393996     0.0546290
H           2.0911552    -1.3157640     0.6810943
C           5.8751138     1.4090471     0.5035599
H           6.8060654     1.9608336     0.5820963
C           5.7270853     0.1317540     1.0607995
H           6.5517028    -0.3396781     1.5897592
C           4.5192028    -0.5321166     0.9342692
H           4.3773117    -1.5262785     1.3508145
C           3.4642322     0.1089526     0.2420697
N           3.5941036     1.3360106    -0.2875449
C           4.7770474     1.9513178    -0.1542669
H           4.8391225     2.9431788    -0.6010968
19
393_C7H10N2_0-7-15-16 (0,) energy =    -382.2723434
C           1.1442239     0.0997300    -0.6510722
H           1.3090293     0.2201281    -1.7334900
C          -0.1225802    -0.7150182    -0.3998077
H          -0.9819257    -0.2410246    -0.8851910
H          -0.3336312    -0.7951730     0.6722695
H          -0.0337169    -1.7304655    -0.8076404
H           1.0441263     1.1094415    -0.2429676
N           2.2901983    -0.5283395    -0.0136590
H           2.2763049    -1.5315398     0.0950509
C           5.8351651     1.4619329     0.6816781
H           6.7432940     2.0337048     0.8416826
C           5.7313351     0.1191517     1.0715151
H           6.5678534    -0.3833108     1.5510139
C           4.5517434    -0.5681066     0.8477956
H           4.4388835    -1.6064907     1.1496020
C           3.4800829     0.1140835     0.2205117
N           3.5741559     1.3972029    -0.1680831
C           4.7257711     2.0384936     0.0746210
H           4.7556638     3.0785352    -0.2491576
19
393_C7H10N2_0-7-15-16 (15,) energy =    -382.2727928
C           1.1462146     0.0921461    -0.6197990
H           1.4230372     0.1527055    -1.6848090
C          -0.1355522    -0.7190660    -0.4498622
H          -0.9458227    -0.2783187    -1.0398425
H          -0.4470133    -0.7450770     0.5999142
H          -0.0050294    -1.7541195    -0.7923983
H           1.0001456     1.1209805    -0.2817398
N           2.2231808    -0.4871687     0.1751768
H           2.2554960    -1.4984271     0.1869408
C           5.8421363     1.4524629     0.6295939
H           6.7650403     2.0127608     0.7374270
C           5.7520725     0.1036424     0.9994122
H           6.6149911    -0.4162130     1.4082548
C           4.5524946    -0.5684198     0.8419004
H           4.4510243    -1.6127036     1.1268359
C           3.4480618     0.1354543     0.3050432
N           3.5271603     1.4253340    -0.0592771
C           4.6999562     2.0512075     0.1107989
H           4.7183698     3.0968653    -0.1950254
19
393_C7H10N2_0-7-15-16 (30,) energy =    -382.2719126
C           1.1806222     0.0302669    -0.6778969
H           1.5030412    -0.1013759    -1.7242303
C          -0.1500115    -0.6786376    -0.4416519
H          -0.9112317    -0.3010561    -1.1325958
H          -0.5004243    -0.5179848     0.5832352
H          -0.0646586    -1.7609800    -0.6058704
H           1.0807092     1.1049906    -0.5137068
N           2.1949247    -0.4604869     0.2555855
H           2.2501032    -1.4723897     0.2897616
C           5.8424212     1.4535258     0.6414866
H           6.7687733     2.0093853     0.7428613
C           5.7710284     0.0840632     0.9242035
H           6.6525022    -0.4596279     1.2548972
C           4.5653063    -0.5811619     0.7730177
H           4.4813689    -1.6447887     0.9824051
C           3.4365621     0.1515496     0.3395515
N           3.4966601     1.4647537     0.0681542
C           4.6761362     2.0809772     0.2159073
H           4.6795400     3.1446034    -0.0205427
19
393_C7H10N2_0-7-15-16 (45,) energy =    -382.2698546
C           1.2214456    -0.0578520    -0.7248792
H           1.5756838    -0.3901733    -1.7153348
C          -0.1628269    -0.6333961    -0.4406541
H          -0.8682045    -0.3388329    -1.2253413
H          -0.5409404    -0.2745406     0.5219532
H          -0.1436247    -1.7306979    -0.4096954
H           1.1875843     1.0333420    -0.7460486
N           2.1670783    -0.4362887     0.3322474
H           2.2403312    -1.4455218     0.4204920
C           5.8344935     1.4651949     0.6492723
H           6.7619586     2.0204328     0.7444271
C           5.7844621     0.0803771     0.8348583
H           6.6840864    -0.4793172     1.0784091
C           4.5735474    -0.5819789     0.6926641
H           4.5078014    -1.6600349     0.8178117
C           3.4219001     0.1696927     0.3763548
N           3.4613309     1.5013151     0.2086107
C           4.6437176     2.1135983     0.3302388
H           4.6310969     3.1917632     0.1731744
19
393_C7H10N2_0-7-15-16 (60,) energy =    -382.2667560
C           1.2524936    -0.1148538    -0.7276233
H           1.6691274    -0.5750578    -1.6398022
C          -0.1587690    -0.6347960    -0.4726934
H          -0.8023023    -0.4387119    -1.3373850
H          -0.5950716    -0.1499859     0.4062880
H          -0.1611594    -1.7186638    -0.2982611
H           1.2375684     0.9660639    -0.8887521
N           2.1158776    -0.3603436     0.4394104
H           2.1873680    -1.3608432     0.6097089
C           5.8391292     1.4625059     0.6326474
H           6.7789618     2.0004028     0.7050691
C           5.7800289     0.0712341     0.7342372
H           6.6842008    -0.5131918     0.8849948
C           4.5493974    -0.5652377     0.6248867
H           4.4749007    -1.6485150     0.6797811
C           3.3943121     0.2176776     0.4338316
N           3.4434895     1.5571900     0.3548808
C           4.6404307     2.1458425     0.4308915
H           4.6365798     3.2319509     0.3440531
19
393_C7H10N2_0-7-15-16 (75,) energy =    -382.2628946
C           1.2838608    -0.1686430    -0.7209956
H           1.7689661    -0.7317048    -1.5372673
C          -0.1410623    -0.6703472    -0.5097441
H          -0.7195917    -0.5887990    -1.4365527
H          -0.6417829    -0.0875873     0.2696560
H          -0.1520524    -1.7247890    -0.2044438
H           1.2734650     0.8843913    -1.0186030
N           2.0566411    -0.2540408     0.5326629
H           2.1173594    -1.2342107     0.8044392
C           5.8453197     1.4566723     0.6162481
H           6.8026563     1.9656741     0.6677649
C           5.7557662     0.0646754     0.6266740
H           6.6505837    -0.5501937     0.6813962
C           4.5006730    -0.5313913     0.5515240
H           4.3982813    -1.6136065     0.5359681
C           3.3603426     0.2893171     0.4901920
N           3.4409504     1.6287311     0.5030586
C           4.6560365     2.1826065     0.5387029
H           4.6784891     3.2718546     0.5280033
19
393_C7H10N2_0-7-15-16 (90,) energy =    -382.2640252
C           1.1639498    -0.6133671     0.3167635
H           1.2836534    -0.3848791     1.3825130
C          -0.3174852    -0.6486808    -0.0445427
H          -0.8390747    -1.4148252     0.5396792
H          -0.4595881    -0.8865785    -1.1062350
H          -0.7861675     0.3213778     0.1497522
H           1.6232818    -1.6015525     0.1475453
N           1.8594801     0.4429712    -0.4506372
H           1.7784342     0.1900907    -1.4367973
C           5.9410505     0.6181133     0.3465073
H           7.0135809     0.6274756     0.5145013
C           5.0716305     1.3679319     1.1428507
H           5.4542136     1.9859083     1.9510599
C           3.7081619     1.3284965     0.8733560
H           2.9943661     1.9165687     1.4410044
C           3.2534409     0.5219600    -0.1808307
N           4.0782339    -0.2176585    -0.9353113
C           5.3923506    -0.1444006    -0.6823234
H           6.0339951    -0.7393734    -1.3308114
19
393_C7H10N2_0-7-15-16 (105,) energy =    -382.2666352
C           1.1281114    -0.5683515     0.3702630
H           1.2138459    -0.1957497     1.3973256
C          -0.3388238    -0.5998013    -0.0475223
H          -0.9151108    -1.2527866     0.6170388
H          -0.4505555    -0.9837323    -1.0692288
H          -0.7714219     0.4052853    -0.0151445
H           1.5477497    -1.5884353     0.3649398
N           1.8969597     0.3347139    -0.5087562
H           1.8409307    -0.0295607    -1.4600430
C           5.9560552     0.6596934     0.3196604
H           7.0270421     0.7127670     0.4883439
C           5.0487264     1.2958124     1.1726792
H           5.4011623     1.8681305     2.0269676
C           3.6892813     1.2068696     0.9032598
H           2.9529886     1.7155974     1.5173921
C           3.2716364     0.4597770    -0.2120871
N           4.1334658    -0.1716491    -1.0224425
C           5.4430531    -0.0455310    -0.7655467
H           6.1114029    -0.5519671    -1.4606049
19
393_C7H10N2_0-7-15-16 (120,) energy =    -382.2690504
C           1.1019217    -0.5190404     0.4208071
H           1.1298161     0.0001716     1.3847850
C          -0.3360003    -0.5764549    -0.0869356
H          -0.9757797    -1.1052423     0.6277938
H          -0.3962546    -1.1091488    -1.0441505
H          -0.7339645     0.4324703    -0.2355901
H           1.4831064    -1.5390355     0.5974456
N           1.9527296     0.2164776    -0.5274904
H           1.9177875    -0.2321271    -1.4416336
C           5.9874156     0.7162380     0.3021939
H           7.0557484     0.8201292     0.4627129
C           5.0561723     1.2333502     1.2087940
H           5.3864538     1.7624786     2.0991190
C           3.7003239     1.0822189     0.9536509
H           2.9531472     1.5025799     1.6191424
C           3.3069995     0.3924402    -0.2094228
N           4.1942445    -0.1241982    -1.0743346
C           5.4971215     0.0610612    -0.8237929
H           6.1815985    -0.3558056    -1.5614977
19
393_C7H10N2_0-7-15-16 (135,) energy =    -382.2710520
C           1.0534524    -0.3966321     0.4813220
H           0.9773524     0.3043822     1.3200071
C          -0.3298188    -0.5950529    -0.1325497
H          -1.0269044    -0.9925995     0.6124319
H          -0.2937812    -1.3063713    -0.9671158
H          -0.7256201     0.3530053    -0.5109580
H           1.4255435    -1.3493079     0.8946548
N           1.9762988     0.1562616    -0.5133252
H           1.9253715    -0.3436837    -1.3976660
C           6.0039831     0.7400701     0.2599809
H           7.0723398     0.8707897     0.3982610
C           5.0827810     1.1401190     1.2328386
H           5.4212498     1.6013112     2.1573082
C           3.7252892     0.9548879     1.0099226
H           2.9917574     1.2783833     1.7408412
C           3.3189128     0.3554389    -0.1996542
N           4.1991190    -0.0508100    -1.1312158
C           5.5002413     0.1596345    -0.9012299
H           6.1752742    -0.1716758    -1.6895218
19
393_C7H10N2_0-7-15-16 (150,) energy =    -382.2725326
C           1.0176759    -0.2768652     0.4995386
H           0.8696927     0.5715817     1.1792835
C          -0.3146972    -0.6276749    -0.1576202
H          -1.0607443    -0.8834819     0.6014762
H          -0.2102400    -1.4906718    -0.8268229
H          -0.6924783     0.2161364    -0.7445293
H           1.3698980    -1.1208255     1.1166087
N           2.0009144     0.0924935    -0.5127002
H           1.9254663    -0.4252166    -1.3823618
C           6.0093144     0.7682650     0.2423293
H           7.0745744     0.9292411     0.3715549
C           5.0942741     1.0464890     1.2614001
H           5.4345146     1.4377778     2.2170146
C           3.7398794     0.8231346     1.0516314
H           3.0139898     1.0416854     1.8272696
C           3.3308343     0.3166910    -0.2002355
N           4.2068326     0.0288569    -1.1811484
C           5.5024486     0.2644212    -0.9538982
H           6.1734860     0.0239520    -1.7779597
19
393_C7H10N2_0-7-15-16 (165,) energy =    -382.2730213
C           0.9962249    -0.2307644     0.4992830
H           0.8681200     0.7066869     1.0569786
C          -0.3246474    -0.6032304    -0.1696598
H          -1.1131276    -0.7218681     0.5800739
H          -0.2371542    -1.5506270    -0.7154454
H          -0.6352677     0.1728033    -0.8773719
H           1.2737431    -1.0023702     1.2377370
N           2.0371476    -0.0509744    -0.4969276
H           1.9364739    -0.5544466    -1.3695001
C           6.0051150     0.8254359     0.2246302
H           7.0610645     1.0449124     0.3431969
C           5.0954064     0.9977431     1.2710507
H           5.4309043     1.3603081     2.2396734
C           3.7527859     0.7011791     1.0756071
H           3.0340186     0.8281647     1.8775719
C           3.3495318     0.2336932    -0.1945989
N           4.2211231     0.0546986    -1.2069499
C           5.5046656     0.3494281    -0.9863676
H           6.1728861     0.1901855    -1.8323158
19
393_C7H10N2_0-7-15-16 (180,) energy =    -382.2727661
C           0.9410603    -0.1751247     0.4925520
H           0.8043644     0.8382841     0.9017305
C          -0.3502549    -0.6321157    -0.1818415
H          -1.1792991    -0.6193920     0.5322711
H          -0.2510070    -1.6530963    -0.5679877
H          -0.6117183     0.0282717    -1.0166454
H           1.1621776    -0.8319138     1.3485977
N           2.0401763    -0.1918227    -0.4495338
H           1.8748554    -0.4817212    -1.4029965
C           5.9744248     0.8291217     0.2265750
H           7.0238287     1.0819489     0.3360737
C           5.0786474     0.9233045     1.2951106
H           5.4189665     1.2571106     2.2724116
C           3.7437140     0.5890299     1.1104548
H           3.0345984     0.6566005     1.9282386
C           3.3344067     0.1589464    -0.1722301
N           4.1907845     0.0647412    -1.2101930
C           5.4668579     0.3941176    -0.9970312
H           6.1232886     0.3034016    -1.8622358
