26
226_C10H13NO2_0-5-12-10 (-165,) energy =    -594.0807653
N           1.3033090    -0.4118946    -1.0473996
C           1.8086707    -1.5062744    -1.8695600
H           1.8526861    -1.2163273    -2.9249170
H           1.1455942    -2.3792747    -1.7746157
H           2.8058936    -1.8017232    -1.5492567
C           1.8648185    -0.0762818     0.1677726
C           6.0882665     0.2982266     1.0022353
H           7.1416790     0.4151810     1.2432262
C           5.1460221     0.1242177     2.0139873
H           5.4472126     0.1155845     3.0571593
C           3.8065941    -0.0224874     1.6701719
H           3.0469243    -0.1284494     2.4368136
C           3.3692385    -0.0499710     0.3367578
C           4.3319955     0.2049188    -0.6728918
O           3.8906245     0.3355618    -1.9575671
C           4.8172849     0.6893203    -2.9724509
H           4.2296343     0.7844220    -3.8873639
H           5.5827742    -0.0850289    -3.1135771
H           5.3072175     1.6466322    -2.7543444
C           5.6848953     0.3505089    -0.3305028
H           6.4262077     0.5248134    -1.1010519
O           1.1574220     0.3202508     1.0945187
C          -0.1321528    -0.1881382    -1.1739520
H          -0.3842599    -0.1419885    -2.2387236
H          -0.3983124     0.7516118    -0.6907694
H          -0.7197444    -0.9919226    -0.7064115
26
226_C10H13NO2_0-5-12-10 (-150,) energy =    -594.0839344
N           1.2913183    -0.4556539    -1.0270370
C           1.8637389    -1.5672100    -1.7711525
H           1.9441273    -1.3293042    -2.8379853
H           1.2247122    -2.4553910    -1.6599102
H           2.8547060    -1.8133796    -1.3932104
C           1.8515447     0.0831116     0.1070830
C           6.0776300     0.1950540     0.9707122
H           7.1358100     0.2450017     1.2138247
C           5.1295242     0.0267754     1.9779952
H           5.4334695    -0.0472044     3.0177798
C           3.7814543    -0.0287236     1.6353303
H           3.0192667    -0.1235959     2.4016110
C           3.3496477     0.0328767     0.3038265
C           4.3200485     0.2630325    -0.7002061
O           3.8683163     0.4479448    -1.9758775
C           4.8037219     0.7696248    -2.9933655
H           4.2149935     0.9132009    -3.9012050
H           5.5251936    -0.0422914    -3.1547216
H           5.3467889     1.6949175    -2.7628369
C           5.6786993     0.3244605    -0.3594289
H           6.4281864     0.4888626    -1.1244783
O           1.1619815     0.6604130     0.9481888
C          -0.1360204    -0.2506436    -1.2304930
H          -0.3425373    -0.2247880    -2.3063818
H          -0.4316179     0.6922090    -0.7722860
H          -0.7329051    -1.0573922    -0.7798948
26
226_C10H13NO2_0-5-12-10 (-135,) energy =    -594.0855395
N           1.2459579    -0.4979196    -0.9554733
C           1.8761614    -1.6103105    -1.6438140
H           1.9964782    -1.4008417    -2.7138133
H           1.2542604    -2.5096692    -1.5342958
H           2.8558198    -1.8199886    -1.2162914
C           1.8155036     0.2283009     0.0604861
C           6.0267425     0.1301288     0.9790459
H           7.0843668     0.1275516     1.2293791
C           5.0675401    -0.0445454     1.9744940
H           5.3640636    -0.1786346     3.0104106
C           3.7179768    -0.0281828     1.6269719
H           2.9507490    -0.1265974     2.3885365
C           3.3037714     0.1176583     0.2989383
C           4.2851845     0.3325004    -0.6933904
O           3.8319340     0.5574337    -1.9631911
C           4.7759828     0.8577465    -2.9792778
H           4.1916956     1.0354679    -3.8838986
H           5.4664842     0.0216243    -3.1524977
H           5.3536968     1.7589696    -2.7375994
C           5.6429455     0.3278860    -0.3483549
H           6.4030249     0.4881652    -1.1040588
O           1.1508927     0.9693007     0.7842251
C          -0.1670891    -0.3030485    -1.2410143
H          -0.3157990    -0.1971325    -2.3229769
H          -0.5060000     0.5961605    -0.7288136
H          -0.7641180    -1.1580238    -0.8927368
26
226_C10H13NO2_0-5-12-10 (-120,) energy =    -594.0858323
N           1.2457219    -0.5132897    -0.8887460
C           1.8896361    -1.6442287    -1.5309496
H           2.0201902    -1.4732270    -2.6076643
H           1.2721773    -2.5419439    -1.3957451
H           2.8663539    -1.8304709    -1.0854242
C           1.8592127     0.3648913    -0.0313597
C           6.0555221     0.0633968     0.9015632
H           7.1127060     0.0114276     1.1481000
C           5.0936937    -0.1214830     1.8920664
H           5.3891106    -0.3155758     2.9187855
C           3.7422815    -0.0401908     1.5537029
H           2.9768116    -0.1506757     2.3161518
C           3.3370658     0.1927564     0.2378274
C           4.3198655     0.3949153    -0.7519902
O           3.8552946     0.6558674    -2.0117470
C           4.7964606     0.9417132    -3.0346534
H           4.2084733     1.1517322    -3.9298652
H           5.4579887     0.0866501    -3.2276682
H           5.4052660     1.8203056    -2.7859229
C           5.6771804     0.3271785    -0.4171879
H           6.4404479     0.4828431    -1.1708958
O           1.2437813     1.2540255     0.5534613
C          -0.1564161    -0.3097938    -1.2177434
H          -0.2790930    -0.1637290    -2.2995021
H          -0.5099761     0.5723463    -0.6857975
H          -0.7534747    -1.1814420    -0.9180166
26
226_C10H13NO2_0-5-12-10 (-105,) energy =    -594.0852429
N           1.2193179    -0.5456861    -0.8322665
C           1.8575407    -1.7266048    -1.3851295
H           1.9736621    -1.6457759    -2.4750145
H           1.2451149    -2.6112157    -1.1692476
H           2.8408649    -1.8713614    -0.9385872
C           1.8734701     0.4477000    -0.1471022
C           6.0353463     0.0170419     0.8824544
H           7.0864898    -0.0625931     1.1466448
C           5.0522907    -0.2051374     1.8433897
H           5.3250403    -0.4583026     2.8635443
C           3.7069853    -0.0885088     1.4850887
H           2.9283857    -0.2364500     2.2283203
C           3.3355778     0.2316018     0.1793219
C           4.3379331     0.4504006    -0.7846411
O           3.8900524     0.7467496    -2.0426628
C           4.8460617     1.0550426    -3.0448449
H           4.2715774     1.2946569    -3.9413550
H           5.5041746     0.2008679    -3.2532254
H           5.4574952     1.9217440    -2.7629187
C           5.6871252     0.3460521    -0.4308610
H           6.4666792     0.5173849    -1.1643992
O           1.3063012     1.4590929     0.2564690
C          -0.1721020    -0.3406505    -1.2043590
H          -0.2730240    -0.2289673    -2.2930957
H          -0.5289292     0.5642251    -0.7141966
H          -0.7786354    -1.1985818    -0.8877985
26
226_C10H13NO2_0-5-12-10 (-90,) energy =    -594.0844137
N           1.1812863    -0.5756526    -0.7973479
C           1.7618525    -1.8463712    -1.1939483
H           1.7802758    -1.9473143    -2.2887415
H           1.1677951    -2.6743545    -0.7859016
H           2.7806183    -1.9324917    -0.8178155
C           1.8967183     0.4865971    -0.3001049
C           6.0128404    -0.0203342     0.8679414
H           7.0541770    -0.1133351     1.1646050
C           4.9973212    -0.3022119     1.7777266
H           5.2345647    -0.6152378     2.7901388
C           3.6644246    -0.1714093     1.3774822
H           2.8620255    -0.3746387     2.0818434
C           3.3398210     0.2344407     0.0834872
C           4.3744623     0.5069600    -0.8311183
O           3.9678734     0.8635173    -2.0858656
C           4.9536547     1.2356433    -3.0357076
H           4.4070826     1.5217286    -3.9360029
H           5.6262365     0.3995658    -3.2701437
H           5.5472686     2.0893736    -2.6844433
C           5.7103710     0.3821283    -0.4365183
H           6.5147979     0.5921626    -1.1322033
O           1.3972571     1.5894423    -0.1029884
C          -0.2052159    -0.3640603    -1.1844995
H          -0.3155891    -0.3912003    -2.2777899
H          -0.5202816     0.6115255    -0.8165329
H          -0.8399378    -1.1485489    -0.7538314
26
226_C10H13NO2_0-5-12-10 (-75,) energy =    -594.0839831
N           1.1640786    -0.5850010    -0.7856826
C           1.6544036    -1.9350726    -1.0042426
H           1.5454854    -2.2211492    -2.0604608
H           1.0838382    -2.6520790    -0.3990697
H           2.7060773    -2.0074117    -0.7305299
C           1.9574575     0.4999787    -0.4924387
C           6.0167647    -0.0331235     0.8453291
H           7.0438260    -0.1263644     1.1881900
C           4.9633114    -0.3870079     1.6838451
H           5.1555549    -0.7550109     2.6872551
C           3.6505673    -0.2572395     1.2220442
H           2.8176988    -0.5199450     1.8694287
C           3.3808865     0.2240499    -0.0595557
C           4.4551413     0.5716086    -0.9024719
O           4.1118502     0.9968217    -2.1517960
C           5.1393493     1.4417429    -3.0222855
H           4.6352975     1.7749792    -3.9310725
H           5.8385274     0.6320733    -3.2714736
H           5.6978908     2.2810210    -2.5883048
C           5.7714230     0.4415054    -0.4465073
H           6.6057445     0.7043643    -1.0866860
O           1.5345677     1.6508639    -0.5042615
C          -0.2249665    -0.3526623    -1.1521141
H          -0.3826409    -0.5259127    -2.2260689
H          -0.4761320     0.6807884    -0.9170659
H          -0.8789276    -1.0337212    -0.5932639
26
226_C10H13NO2_0-5-12-10 (-60,) energy =    -594.0834915
N           1.1164598    -0.6290138    -0.7309723
C           1.5500262    -2.0134442    -0.8330745
H           1.3177245    -2.4156622    -1.8300132
H           1.0353131    -2.6363539    -0.0894314
H           2.6238810    -2.0912941    -0.6704759
C           1.9637196     0.4571951    -0.6584410
C           5.9832795    -0.0314458     0.8122983
H           6.9989759    -0.1140642     1.1901569
C           4.9080739    -0.4470788     1.5930412
H           5.0710419    -0.8533214     2.5868061
C           3.6125806    -0.3310402     1.0835626
H           2.7623105    -0.6406882     1.6857714
C           3.3755790     0.2044068    -0.1844764
C           4.4742580     0.6117459    -0.9710982
O           4.1789067     1.0752045    -2.2160132
C           5.2330462     1.5702656    -3.0251526
H           4.7602421     1.9270272    -3.9416837
H           5.9583003     0.7835033    -3.2734338
H           5.7559747     2.4036023    -2.5384881
C           5.7745679     0.4915037    -0.4666100
H           6.6262856     0.7985335    -1.0624417
O           1.5783096     1.6018468    -0.8697879
C          -0.2789184    -0.3882909    -1.0688907
H          -0.4771062    -0.6101154    -2.1275369
H          -0.5083526     0.6597182    -0.8811967
H          -0.9223983    -1.0302375    -0.4552713
26
226_C10H13NO2_0-5-12-10 (-45,) energy =    -594.0822061
N           1.1065294    -0.6392387    -0.6968904
C           1.4842581    -2.0457940    -0.7381957
H           1.1936495    -2.4936962    -1.7002410
H           0.9805694    -2.6051967     0.0607617
H           2.5605930    -2.1586175    -0.6184105
C           2.0024652     0.4089551    -0.8287023
C           5.9645993    -0.0250924     0.8152238
H           6.9637011    -0.0986203     1.2367660
C           4.8649243    -0.4919289     1.5304367
H           4.9904084    -0.9297939     2.5161567
C           3.5932872    -0.3848908     0.9648182
H           2.7241786    -0.7268485     1.5197243
C           3.3960524     0.1965863    -0.2915966
C           4.5236812     0.6479955    -1.0160918
O           4.2887399     1.1387952    -2.2608229
C           5.3763756     1.6602558    -3.0061976
H           4.9449540     2.0289659    -3.9382452
H           6.1226134     0.8865635    -3.2324706
H           5.8644255     2.4903845    -2.4793863
C           5.8014838     0.5375378    -0.4524708
H           6.6725558     0.8814759    -0.9976979
O           1.6467356     1.5100699    -1.2334898
C          -0.2830777    -0.3733959    -1.0446382
H          -0.4872529    -0.5965299    -2.1022950
H          -0.4994047     0.6791695    -0.8667998
H          -0.9347685    -1.0004848    -0.4256006
26
226_C10H13NO2_0-5-12-10 (-30,) energy =    -594.0796137
N           1.0792366    -0.6736738    -0.6276678
C           1.4048935    -2.0973026    -0.6132233
H           1.0513776    -2.5829792    -1.5354584
H           0.9231484    -2.5955821     0.2376019
H           2.4811959    -2.2469113    -0.5416926
C           2.0071107     0.3115573    -0.9569219
C           5.9488161    -0.0039454     0.7786211
H           6.9413915    -0.0580493     1.2182334
C           4.8505936    -0.5281942     1.4555656
H           4.9692762    -0.9925946     2.4298812
C           3.5893228    -0.4433994     0.8667305
H           2.7222108    -0.8191615     1.4006319
C           3.3899719     0.1760028    -0.3734783
C           4.5220074     0.6793714    -1.0633170
O           4.3123529     1.1968482    -2.2992907
C           5.4109687     1.7411490    -3.0113293
H           4.9961789     2.1148727    -3.9488547
H           6.1730043     0.9803621    -3.2284226
H           5.8750452     2.5719170    -2.4641193
C           5.7907979     0.5927002    -0.4726400
H           6.6607366     0.9807985    -0.9888547
O           1.6598578     1.3287186    -1.5458091
C          -0.3064801    -0.3901068    -0.9823722
H          -0.5187438    -0.6231152    -2.0364123
H          -0.5125923     0.6673906    -0.8201053
H          -0.9626002    -0.9985971    -0.3505354
26
226_C10H13NO2_0-5-12-10 (-15,) energy =    -594.0756134
N           1.0874932    -0.6683465    -0.5789669
C           1.3347439    -2.1088567    -0.4915231
H           0.9190820    -2.6258083    -1.3701115
H           0.8610428    -2.5293824     0.4044451
H           2.4029745    -2.3184539    -0.4529329
C           2.0582631     0.2130432    -1.0745827
C           5.9773712     0.0126247     0.7469182
H           6.9648176    -0.0263325     1.1995687
C           4.8841771    -0.5634756     1.3889869
H           4.9997754    -1.0544520     2.3505238
C           3.6316220    -0.4951731     0.7828595
H           2.7704658    -0.8997168     1.3027603
C           3.4238817     0.1582473    -0.4409208
C           4.5567247     0.7138921    -1.0968891
O           4.3666393     1.2720024    -2.3162881
C           5.4738833     1.8396902    -2.9962749
H           5.0723817     2.2259537    -3.9344755
H           6.2475602     1.0906178    -3.2123551
H           5.9190953     2.6653748    -2.4260268
C           5.8178161     0.6454899    -0.4845817
H           6.6828227     1.0776290    -0.9728394
O           1.7371550     1.1132794    -1.8406084
C          -0.2850498    -0.3510951    -0.9610581
H          -0.5064502    -0.6391226    -1.9994210
H          -0.4530172     0.7215451    -0.8647454
H          -0.9640017    -0.8920528    -0.2931839
26
226_C10H13NO2_0-5-12-10 (0,) energy =    -594.0705252
N           1.0770360    -0.6722095    -0.5444069
C           1.2205922    -2.1217347    -0.3620834
H           0.7453856    -2.6644750    -1.1938993
H           0.7419020    -2.4443116     0.5710115
H           2.2706076    -2.4111654    -0.3352551
C           2.1022810     0.0662446    -1.1727198
C           5.9902863     0.0144307     0.7381476
H           6.9720028    -0.0009994     1.2044771
C           4.9094980    -0.6194515     1.3456724
H           5.0277365    -1.1338275     2.2945466
C           3.6653751    -0.5786214     0.7224040
H           2.8158247    -1.0193598     1.2291224
C           3.4447001     0.0979088    -0.4885107
C           4.5690226     0.7188513    -1.1070700
O           4.3861645     1.3250273    -2.3030312
C           5.4898493     1.9444951    -2.9430392
H           5.0943308     2.3466098    -3.8771102
H           6.2885997     1.2246731    -3.1661603
H           5.9002446     2.7653135    -2.3403538
C           5.8218776     0.6803917    -0.4731894
H           6.6752067     1.1650922    -0.9313166
O           1.8286143     0.8097010    -2.1054529
C          -0.2701026    -0.3098614    -0.9792010
H          -0.4975957    -0.6722814    -1.9924311
H          -0.3787440     0.7752554    -0.9759736
H          -0.9860072    -0.7498991    -0.2767182
26
226_C10H13NO2_0-5-12-10 (15,) energy =    -594.0750392
N           1.0727141    -0.1448410    -0.7079045
C           0.7550090     1.2791291    -0.5766558
H           0.1323382     1.4574834     0.3088028
H           0.2001152     1.6286997    -1.4598689
H           1.6630091     1.8745128    -0.4931624
C           2.3272256    -0.5884696    -1.1258224
C           5.7965063     1.0861466     0.8556643
H           6.6706911     1.5102211     1.3425845
C           4.5380171     1.1821722     1.4517312
H           4.4195009     1.6754242     2.4122108
C           3.4283825     0.6450105     0.8053410
H           2.4606645     0.6892822     1.2928888
C           3.5378748    -0.0343202    -0.4215980
C           4.8162984    -0.0986009    -1.0258364
O           5.0085114    -0.6039718    -2.2845886
C           5.3480372    -1.9925909    -2.3512179
H           5.5235809    -2.2074968    -3.4075886
H           4.5208955    -2.6048348    -1.9840459
H           6.2642536    -2.1990084    -1.7807381
C           5.9277385     0.4502332    -0.3755562
H           6.8892406     0.3897426    -0.8767236
O           2.4157649    -1.5440782    -1.8922680
C          -0.0584595    -0.9426798    -1.1732524
H          -0.9273202    -0.7057482    -0.5503781
H           0.1799375    -2.0023960    -1.0836159
H          -0.3084118    -0.7357449    -2.2238525
26
226_C10H13NO2_0-5-12-10 (30,) energy =    -594.0792075
N           1.0605188    -0.1444966    -0.7354659
C           0.8220379     1.2959676    -0.6783581
H           0.1644978     1.5458643     0.1636620
H           0.3362081     1.6392567    -1.6035539
H           1.7587434     1.8392922    -0.5650718
C           2.3022881    -0.6985650    -1.0082867
C           5.7743601     1.0848716     0.8500369
H           6.6529112     1.5234758     1.3157044
C           4.5370700     1.1332284     1.4949966
H           4.4421506     1.6022534     2.4701626
C           3.4178575     0.5796628     0.8777661
H           2.4606433     0.5965634     1.3896100
C           3.5080930    -0.0627923    -0.3683031
C           4.7603249    -0.0844071    -1.0190608
O           4.8937305    -0.5668606    -2.2954552
C           5.3407497    -1.9234377    -2.3993492
H           5.4572557    -2.1198783    -3.4674863
H           4.5936935    -2.5999219    -1.9766749
H           6.3091323    -2.0576615    -1.8979015
C           5.8803133     0.4830259    -0.4017652
H           6.8249481     0.4645810    -0.9373753
O           2.3932190    -1.7681050    -1.6068486
C          -0.0997062    -0.9205798    -1.1600583
H          -0.9650176    -0.6114630    -0.5641943
H           0.0970134    -1.9808935    -1.0049504
H          -0.3308839    -0.7654605    -2.2238925
26
226_C10H13NO2_0-5-12-10 (45,) energy =    -594.0817836
N           1.0534350    -0.1456381    -0.7766613
C           0.8797730     1.3018365    -0.7703489
H           0.1840207     1.6037249     0.0229006
H           0.4669413     1.6402783    -1.7317553
H           1.8324804     1.8038673    -0.6108457
C           2.2755338    -0.7793354    -0.8757744
C           5.7579900     1.0918606     0.8579918
H           6.6435370     1.5436189     1.2970326
C           4.5490751     1.0899666     1.5566946
H           4.4859886     1.5321512     2.5468821
C           3.4177852     0.5207454     0.9747025
H           2.4775914     0.5086304     1.5190494
C           3.4755902    -0.0790946    -0.2924590
C           4.6969483    -0.0599754    -0.9923521
O           4.7714372    -0.5273159    -2.2808743
C           5.2719760    -1.8629819    -2.4199461
H           5.3225844    -2.0544342    -3.4941711
H           4.5885583    -2.5721730    -1.9454821
H           6.2780099    -1.9532891    -1.9879059
C           5.8276486     0.5244646    -0.4132079
H           6.7499014     0.5439178    -0.9865628
O           2.3682061    -1.9281567    -1.3040289
C          -0.1258076    -0.8982797    -1.1860417
H          -0.9850420    -0.5688318    -0.5912807
H           0.0544463    -1.9601343    -1.0244327
H          -0.3566015    -0.7416946    -2.2497071
26
226_C10H13NO2_0-5-12-10 (60,) energy =    -594.0829243
N           1.0744129    -0.1794680    -0.8208473
C           0.9499850     1.2694584    -0.8772439
H           0.2087444     1.6211280    -0.1477472
H           0.6187726     1.5846362    -1.8769491
H           1.9052292     1.7459378    -0.6638462
C           2.2644904    -0.8611030    -0.7246187
C           5.7742105     1.1107376     0.8238923
H           6.6703783     1.5837187     1.2165199
C           4.6096492     1.0626814     1.5927107
H           4.5940688     1.4904022     2.5911252
C           3.4616943     0.4659469     1.0718712
H           2.5530895     0.4238809     1.6670268
C           3.4645492    -0.1061070    -0.2075536
C           4.6410118    -0.0506531    -0.9737563
O           4.6440841    -0.5219700    -2.2653078
C           5.1592829    -1.8507453    -2.4237185
H           5.1279445    -2.0597685    -3.4954572
H           4.5324301    -2.5660968    -1.8838064
H           6.1980107    -1.9143865    -2.0721871
C           5.7870798     0.5602072    -0.4572903
H           6.6748924     0.6105549    -1.0809600
O           2.3491991    -2.0645133    -0.9643118
C          -0.1147391    -0.9202887    -1.2192600
H          -0.9696689    -0.5963607    -0.6138381
H           0.0676177    -1.9833221    -1.0692379
H          -0.3536655    -0.7462308    -2.2779667
26
226_C10H13NO2_0-5-12-10 (75,) energy =    -594.0830893
N           1.1546096    -0.1732627    -0.8880248
C           1.0732317     1.2732563    -1.0105118
H           0.2687389     1.6671539    -0.3754846
H           0.8571202     1.5578631    -2.0497108
H           2.0129110     1.7355795    -0.7124620
C           2.2987310    -0.8716294    -0.5993171
C           5.8168142     1.1638502     0.8418740
H           6.7164529     1.6531307     1.2053864
C           4.7024087     1.0354129     1.6731259
H           4.7306868     1.4173540     2.6896759
C           3.5473335     0.4165154     1.1936522
H           2.6770810     0.3143233     1.8371301
C           3.4953611    -0.0876076    -0.1115209
C           4.6232371     0.0396545    -0.9366899
O           4.5661973    -0.3973260    -2.2414483
C           5.0706659    -1.7244051    -2.4489927
H           4.9842096    -1.9158504    -3.5210142
H           4.4752210    -2.4511637    -1.8879832
H           6.1257011    -1.7937427    -2.1518189
C           5.7762199     0.6694186    -0.4619908
H           6.6259238     0.7742393    -1.1303918
O           2.3635143    -2.0973991    -0.6806847
C          -0.0249633    -0.9094108    -1.3197515
H          -0.9041596    -0.5683575    -0.7593569
H           0.1425693    -1.9702441    -1.1392231
H          -0.2140493    -0.7512122    -2.3905193
26
226_C10H13NO2_0-5-12-10 (90,) energy =    -594.0829002
N           1.2017179    -0.1984539    -0.9196722
C           1.1882834     1.2314533    -1.1793634
H           0.3101961     1.6920981    -0.7084374
H           1.1417886     1.4295761    -2.2590984
H           2.0857897     1.7000940    -0.7783403
C           2.2818041    -0.8939128    -0.4460537
C           5.8248579     1.1964536     0.8522671
H           6.7289467     1.7039208     1.1777185
C           4.7762968     0.9851328     1.7497811
H           4.8613213     1.3221034     2.7789984
C           3.6148297     0.3398989     1.3227878
H           2.7973725     0.1713514     2.0190589
C           3.4888960    -0.0980965    -0.0001859
C           4.5523956     0.1079883    -0.8906900
O           4.4227409    -0.2846611    -2.2069261
C           4.8885784    -1.6154459    -2.4732646
H           4.7130902    -1.7908701    -3.5371291
H           4.3337379    -2.3472457    -1.8768454
H           5.9627156    -1.7033341    -2.2623298
C           5.7139419     0.7572613    -0.4674368
H           6.5131020     0.9188734    -1.1850159
O           2.2938249    -2.1205082    -0.3502422
C           0.0319072    -0.9371299    -1.3719032
H          -0.8731496    -0.5348099    -0.8999957
H           0.1576237    -1.9840402    -1.0991064
H          -0.0809952    -0.8564767    -2.4617670
26
226_C10H13NO2_0-5-12-10 (105,) energy =    -594.0829183
N           1.2603948    -0.2441563    -0.9284243
C           1.3481102     1.1348518    -1.3800746
H           0.4109279     1.6561057    -1.1493220
H           1.5187149     1.1871710    -2.4637075
H           2.1643061     1.6498011    -0.8749945
C           2.2618160    -0.9156359    -0.2795868
C           5.8522381     1.1700821     0.8945917
H           6.7638485     1.6808838     1.1926453
C           4.8664965     0.8821733     1.8410559
H           5.0070553     1.1652590     2.8803627
C           3.6974283     0.2283290     1.4511140
H           2.9311302    -0.0074722     2.1844677
C           3.4948880    -0.1335434     0.1146646
C           4.4973945     0.1481067    -0.8248309
O           4.3033572    -0.1778807    -2.1533162
C           4.6894650    -1.5166151    -2.4904020
H           4.4579379    -1.6436546    -3.5503986
H           4.1315023    -2.2501317    -1.8972581
H           5.7659304    -1.6643835    -2.3318357
C           5.6706007     0.7983987    -0.4378255
H           6.4217547     1.0127737    -1.1924081
O           2.1833348    -2.1083407     0.0140601
C           0.0933490    -0.9882948    -1.3791332
H          -0.8242724    -0.4943582    -1.0364927
H           0.1465317    -1.9953632    -0.9678246
H           0.0671970    -1.0431416    -2.4763573
26
226_C10H13NO2_0-5-12-10 (120,) energy =    -594.0830191
N           1.3165337    -0.2997219    -1.0751213
C           1.4283414     1.0477178    -1.6091445
H           0.4779542     1.5766414    -1.4628723
H           1.6602926     1.0335231    -2.6813237
H           2.2128567     1.5994149    -1.0930295
C           2.2254203    -0.8993208    -0.2440223
C           5.8607821     1.1305120     0.8978347
H           6.7792535     1.6293291     1.1952464
C           4.9028773     0.7881539     1.8549612
H           5.0719766     1.0160091     2.9034911
C           3.7285659     0.1476461     1.4627990
H           2.9859559    -0.1391530     2.2016918
C           3.4801847    -0.1365170     0.1140804
C           4.4633765     0.1868966    -0.8348921
O           4.2603429    -0.0851639    -2.1744291
C           4.5587811    -1.4337285    -2.5516013
H           4.3203962    -1.5146499    -3.6145366
H           3.9570254    -2.1519840    -1.9820806
H           5.6230760    -1.6556640    -2.3977530
C           5.6451268     0.8205375    -0.4446622
H           6.3787801     1.0653739    -1.2069771
O           2.0517704    -2.0229876     0.2290271
C           0.1405432    -1.0508918    -1.4886383
H          -0.7754498    -0.5433653    -1.1588254
H           0.1883181    -2.0419555    -1.0395893
H           0.1094050    -1.1404544    -2.5827571
26
226_C10H13NO2_0-5-12-10 (135,) energy =    -594.0825869
N           1.4457920    -0.2843065    -1.1486224
C           1.5407945     1.0470889    -1.7276293
H           0.5886781     1.5761167    -1.5840348
H           1.7556841     0.9983323    -2.8011881
H           2.3289139     1.6213958    -1.2438508
C           2.2482629    -0.7726592    -0.1484091
C           5.9653269     1.1221929     0.9702837
H           6.9001875     1.5868830     1.2719133
C           5.0174932     0.7575030     1.9295175
H           5.2099842     0.9313812     2.9843074
C           3.8242598     0.1615505     1.5297339
H           3.0884609    -0.1495588     2.2648025
C           3.5357219    -0.0511783     0.1737596
C           4.5171451     0.2821320    -0.7769766
O           4.3150640     0.0588158    -2.1252392
C           4.5490685    -1.2885252    -2.5423330
H           4.3372417    -1.3192067    -3.6135253
H           3.8917388    -1.9933284    -2.0189055
H           5.5942394    -1.5761947    -2.3678152
C           5.7197595     0.8717332    -0.3785205
H           6.4482400     1.1241780    -1.1432666
O           1.9616259    -1.7906906     0.4827330
C           0.2533150    -1.0381109    -1.5084725
H          -0.6531555    -0.5587216    -1.1125399
H           0.3320680    -2.0407429    -1.0908003
H           0.1655722    -1.0909809    -2.6005693
26
226_C10H13NO2_0-5-12-10 (150,) energy =    -594.0811478
N           1.4570945    -0.3661156    -1.1892237
C           1.4960835     0.9411142    -1.8346986
H           0.5374973     1.4571176    -1.6793534
H           1.6693835     0.8421147    -2.9114030
H           2.2888034     1.5562654    -1.4142492
C           2.1648310    -0.6850085    -0.0530567
C           5.9911166     1.0426845     0.9814870
H           6.9521388     1.4608712     1.2687596
C           5.0531991     0.6911416     1.9554057
H           5.2790885     0.8267230     3.0091790
C           3.8277683     0.1571700     1.5705288
H           3.0973111    -0.1457997     2.3134782
C           3.4876049    -0.0055953     0.2173917
C           4.4652118     0.3029061    -0.7490507
O           4.2455705     0.1078280    -2.0988316
C           4.4923894    -1.2247649    -2.5505290
H           4.2924524    -1.2266340    -3.6245121
H           3.8304609    -1.9455205    -2.0555500
H           5.5370007    -1.5126420    -2.3728087
C           5.7001008     0.8343854    -0.3644151
H           6.4199423     1.0721155    -1.1419829
O           1.7785377    -1.5631523     0.7188547
C           0.2536854    -1.1429563    -1.4602010
H          -0.6310826    -0.7059743    -0.9746339
H           0.3856235    -2.1562304    -1.0827542
H           0.0815032    -1.1651311    -2.5418236
26
226_C10H13NO2_0-5-12-10 (165,) energy =    -594.0782047