27
035_C13H14_2-0-19-17 (-165,) energy =    -503.7751138
C           2.8347779    -1.9319695    -1.1360392
H           3.3542963    -2.6214055    -1.8243005
C           1.6771397    -1.3408898    -1.9066384
H           1.9386007    -0.7382863    -2.7746780
C           0.3890746    -1.5716644    -1.6426719
H          -0.3730118    -1.1372473    -2.2882005
C          -0.0936550    -2.4042823    -0.4880650
H          -0.7661848    -1.8090213     0.1522872
H          -0.7276323    -3.2274688    -0.8586431
C           1.0413114    -2.9579860     0.3278869
H           0.7762711    -3.5592410     1.1964784
C           2.3283378    -2.7572018     0.0391006
H           3.0928278    -3.1936995     0.6780695
C           6.1084303     0.4789127     0.4536308
H           6.9350765     1.0529395     0.8638103
C           6.2058738    -0.9025281     0.3010128
H           7.1094459    -1.4320764     0.5913099
C           5.1270370    -1.6013381    -0.2311472
H           5.2130499    -2.6785560    -0.3625063
C           3.9393722    -0.9692316    -0.6388800
C           3.8256852     0.4264997    -0.4462886
C           2.5845143     1.2429971    -0.7497951
H           1.6824875     0.7966768    -0.3243980
H           2.4078297     1.3549203    -1.8256017
H           2.6924349     2.2496941    -0.3330841
C           4.9289472     1.1177696     0.0838602
H           4.8437398     2.1935246     0.2207756
27
035_C13H14_2-0-19-17 (-150,) energy =    -503.7785198
C           2.8665355    -1.9850322    -1.0685863
H           3.3878929    -2.7860620    -1.6202067
C           1.8042133    -1.4380599    -1.9950597
H           2.1662100    -0.9309319    -2.8886851
C           0.4909808    -1.5967165    -1.8178998
H          -0.2006453    -1.2061623    -2.5630808
C          -0.1143006    -2.2806032    -0.6228150
H          -0.8324988    -1.6055414    -0.1279911
H          -0.7269234    -3.1379335    -0.9497230
C           0.9254385    -2.7404181     0.3629017
H           0.5636216    -3.2063189     1.2784934
C           2.2395256    -2.6160122     0.1642542
H           2.9372314    -2.9766434     0.9177797
C           6.1469370     0.5155835     0.3301761
H           6.9744117     1.1200193     0.6923328
C           6.3101155    -0.8486440     0.1007357
H           7.2657036    -1.3328877     0.2838583
C           5.2297353    -1.5902899    -0.3708841
H           5.3609457    -2.6543937    -0.5598785
C           3.9796095    -1.0106486    -0.6392131
C           3.7989684     0.3624901    -0.3554571
C           2.4716314     1.0816047    -0.4790327
H           1.6750399     0.5514648     0.0519591
H           2.1426750     1.1864754    -1.5180341
H           2.5502092     2.0872829    -0.0531914
C           4.9016694     1.0982816     0.1062495
H           4.7662323     2.1580549     0.3110127
27
035_C13H14_2-0-19-17 (-135,) energy =    -503.7812477
C           1.8312094    -0.8916929     0.0682198
H           1.1933058    -0.4275733     0.8396265
C           1.8870615    -2.3714172     0.3804943
H           2.3988546    -2.6446218     1.3024972
C           1.3182234    -3.3201578    -0.3661304
H           1.3759737    -4.3601750    -0.0478863
C           0.5975763    -3.0447466    -1.6581083
H           1.0366334    -3.6514138    -2.4678185
H          -0.4460620    -3.3958098    -1.5897677
C           0.6236090    -1.5876209    -2.0354122
H           0.1600428    -1.3163437    -2.9829976
C           1.1689811    -0.6362018    -1.2737337
H           1.1495066     0.4012514    -1.6028957
C           5.5045835     1.4254659     0.3461654
H           6.4128181     2.0187130     0.4132075
C           4.3219308     1.8703076     0.9317167
H           4.2875327     2.8183915     1.4619334
C           3.1759593     1.0831935     0.8312221
H           2.2533094     1.4281962     1.2941747
C           3.1745766    -0.1519142     0.1670543
C           4.3656698    -0.5862983    -0.4601549
C           4.4565340    -1.8570815    -1.2770724
H           3.6583866    -1.9116276    -2.0244743
H           4.3702377    -2.7561806    -0.6579311
H           5.4166914    -1.9015908    -1.8013834
C           5.5116633     0.2132596    -0.3420768
H           6.4302844    -0.1242567    -0.8171844
27
035_C13H14_2-0-19-17 (-120,) energy =    -503.7825134
C           1.7985780    -0.8211343    -0.0186737
H           1.1231868    -0.2747477     0.6619108
C           1.8244153    -2.2581018     0.4593448
H           2.2843650    -2.4280469     1.4316701
C           1.3004326    -3.2820581    -0.2181831
H           1.3368597    -4.2838043     0.2079203
C           0.6490878    -3.1423542    -1.5682685
H           1.1351168    -3.8199856    -2.2902473
H          -0.3940429    -3.4979285    -1.5203829
C           0.6848692    -1.7298013    -2.0882757
H           0.2576730    -1.5582314    -3.0754522
C           1.2035860    -0.7047442    -1.4079719
H           1.1985333     0.2941986    -1.8410046
C           5.5361786     1.3606749     0.4378405
H           6.4642118     1.9141377     0.5553603
C           4.3771445     1.7738099     1.0895550
H           4.3822174     2.6555669     1.7249002
C           3.2026743     1.0419035     0.9186191
H           2.2972989     1.3646380     1.4289382
C           3.1493934    -0.1025907     0.1111298
C           4.3250758    -0.5189915    -0.5575991
C           4.3719632    -1.7295261    -1.4636227
H           3.6281768    -1.6638673    -2.2645808
H           4.1613691    -2.6549611    -0.9170091
H           5.3609392    -1.8245204    -1.9232334
C           5.4972531     0.2274343    -0.3737408
H           6.4017992    -0.0923764    -0.8865686
27
035_C13H14_2-0-19-17 (-105,) energy =    -503.7821858
C           1.7715701    -0.7578184    -0.1096796
H           1.0695092    -0.1370602     0.4743403
C           1.7543296    -2.1355493     0.5218206
H           2.1657290    -2.2040336     1.5273070
C           1.2603910    -3.2226451    -0.0759112
H           1.2691841    -4.1765939     0.4497794
C           0.6684077    -3.2165109    -1.4608207
H           1.1801117    -3.9628805    -2.0915237
H          -0.3776661    -3.5644942    -1.4215734
C           0.7329777    -1.8627778    -2.1168817
H           0.3410401    -1.7901945    -3.1305154
C           1.2403703    -0.7785876    -1.5261891
H           1.2604623     0.1717956    -2.0574481
C           5.5583430     1.2832989     0.5445060
H           6.5014780     1.7942382     0.7200381
C           4.4135505     1.6464180     1.2493324
H           4.4456057     2.4445498     1.9863096
C           3.2184878     0.9728473     0.9998573
H           2.3234299     1.2589132     1.5488707
C           3.1286591    -0.0580719     0.0544185
C           4.2957866    -0.4414478    -0.6473711
C           4.3165609    -1.5708332    -1.6538536
H           3.7237721    -1.3369957    -2.5446528
H           3.9003097    -2.4922061    -1.2333008
H           5.3427335    -1.7759901    -1.9754254
C           5.4879733     0.2486291    -0.3875572
H           6.3851448    -0.0429351    -0.9293925
27
035_C13H14_2-0-19-17 (-90,) energy =    -503.7802599
C           1.7880282    -0.7182080    -0.2141498
H           1.0697868    -0.0239410     0.2585249
C           1.6999525    -2.0148637     0.5668636
H           2.0678443    -1.9803078     1.5904531
C           1.2053167    -3.1499526     0.0670407
H           1.1662852    -4.0416602     0.6913587
C           0.6671505    -3.2794282    -1.3339529
H           1.1784649    -4.1033765    -1.8596991
H          -0.3898237    -3.5934724    -1.2997290
C           0.7973621    -2.0073176    -2.1290611
H           0.4438757    -2.0353459    -3.1588699
C           1.3209931    -0.8804209    -1.6416463
H           1.3876490     0.0053667    -2.2717094
C           5.5957252     1.2139647     0.6255057
H           6.5431879     1.6952144     0.8535563
C           4.4566985     1.4995832     1.3745048
H           4.4981507     2.2045087     2.2006573
C           3.2556492     0.8702845     1.0522176
H           2.3637807     1.1000331     1.6324303
C           3.1501695    -0.0350448    -0.0135687
C           4.3163647    -0.3608736    -0.7437187
C           4.3421622    -1.4052948    -1.8390821
H           3.7838815    -1.0934996    -2.7279830
H           3.8986758    -2.3486644    -1.5039667
H           5.3739726    -1.6060252    -2.1455227
C           5.5144992     0.2894555    -0.4144136
H           6.4094762     0.0477103    -0.9837125
27
035_C13H14_2-0-19-17 (-75,) energy =    -503.7771734
C           1.7913558    -0.7030433    -0.3078157
H           1.0764032     0.0697187     0.0317530
C           1.5892432    -1.8920141     0.6128826
H           1.8929272    -1.7518487     1.6480976
C           1.0782228    -3.0595519     0.2163234
H           0.9605240    -3.8675523     0.9371781
C           0.6279734    -3.3372598    -1.1937460
H           1.1431848    -4.2304290    -1.5857399
H          -0.4393468    -3.6161287    -1.1968112
C           0.8514075    -2.1688288    -2.1166325
H           0.5453585    -2.2979050    -3.1538800
C           1.3951666    -1.0124339    -1.7304265
H           1.5167502    -0.2050976    -2.4505493
C           5.6079833     1.1354224     0.7081742
H           6.5532292     1.5939519     0.9864555
C           4.4707417     1.3190014     1.4920440
H           4.5102087     1.9202090     2.3965502
C           3.2748704     0.7228071     1.1012258
H           2.3841249     0.8772677     1.7079168
C           3.1657091    -0.0488713    -0.0667001
C           4.3309420    -0.2794254    -0.8322151
C           4.3800150    -1.1894906    -2.0427081
H           3.8493252    -0.7732733    -2.9059228
H           3.9304819    -2.1649986    -1.8362173
H           5.4195906    -1.3537479    -2.3446098
C           5.5257180     0.3407138    -0.4323475
H           6.4192166     0.1748169    -1.0303043
27
035_C13H14_2-0-19-17 (-60,) energy =    -503.7736822
C           1.8005272    -0.7045138    -0.3904091
H           1.1118254     0.1438305    -0.2113437
C           1.4451993    -1.7522747     0.6505002
H           1.6425695    -1.4915756     1.6870002
C           0.9249784    -2.9461081     0.3596311
H           0.6968562    -3.6420568     1.1658220
C           0.6098025    -3.4023323    -1.0394881
H           1.1482766    -4.3387462    -1.2635260
H          -0.4559889    -3.6772357    -1.1110546
C           0.9342911    -2.3584692    -2.0732903
H           0.6902748    -2.5987492    -3.1071992
C           1.4847477    -1.1758085    -1.7881190
H           1.6643358    -0.4636054    -2.5900460
C           5.6326713     1.0382635     0.7771508
H           6.5763610     1.4723562     1.0966593
C           4.5005085     1.1188209     1.5852986
H           4.5402682     1.6156910     2.5510608
C           3.3102464     0.5518345     1.1416645
H           2.4261932     0.6362315     1.7703845
C           3.1924012    -0.0888804    -0.1042228
C           4.3506037    -0.2039957    -0.9064517
C           4.4142803    -0.9313353    -2.2357561
H           3.9356932    -0.3656237    -3.0442740
H           3.9286213    -1.9089776    -2.1985985
H           5.4591181    -1.0834260    -2.5253591
C           5.5429206     0.3815630    -0.4458441
H           6.4300588     0.2999217    -1.0700416
27
035_C13H14_2-0-19-17 (-45,) energy =    -503.7698124
C           1.7683412    -0.6464182    -0.4853239
H           1.1585347     0.2769283    -0.4988883
C           1.1979321    -1.5143035     0.6261485
H           1.1423010    -1.0769321     1.6181334
C           0.7667151    -2.7653794     0.4550243
H           0.3798952    -3.3195596     1.3090595
C           0.7553418    -3.4688217    -0.8742941
H           1.4520008    -4.3246588    -0.8604812
H          -0.2337206    -3.9225501    -1.0471446
C           1.0887856    -2.5373959    -2.0064622
H           0.9191282    -2.9068220    -3.0168764
C           1.5451385    -1.2945255    -1.8323743
H           1.7133283    -0.6696912    -2.7046248
C           5.6874963     0.8418094     0.8204277
H           6.6482384     1.2115810     1.1685588
C           4.5724882     0.8496831     1.6534956
H           4.6385107     1.2283495     2.6701340
C           3.3613396     0.3610436     1.1737255
H           2.5033665     0.3989572     1.8371475
C           3.1981540    -0.1329270    -0.1335086
C           4.3359896    -0.1465510    -0.9767874
C           4.3651895    -0.6519317    -2.4073550
H           3.7995023    -0.0043737    -3.0882148
H           3.9554006    -1.6598555    -2.5045027
H           5.3975715    -0.6724047    -2.7705428
C           5.5518163     0.3488208    -0.4724203
H           6.4203613     0.3356160    -1.1269236
27
035_C13H14_2-0-19-17 (-30,) energy =    -503.7692937
C           1.7488079    -0.5573136    -0.6147010
H           1.2795899     0.4113945    -0.8554730
C           0.9423851    -1.2008603     0.5045010
H           0.6149464    -0.5528408     1.3142137
C           0.6160598    -2.4936869     0.5421492
H           0.0531779    -2.8832192     1.3887250
C           0.9570252    -3.4558814    -0.5639093
H           1.7807618    -4.1218821    -0.2546290
H           0.1067793    -4.1292107    -0.7487649
C           1.3105305    -2.7232772    -1.8298257
H           1.2467144    -3.2799836    -2.7634441
C           1.6407941    -1.4298496    -1.8544688
H           1.8095804    -0.9521747    -2.8133751
C           5.7168993     0.5772863     0.8993375
H           6.6897357     0.8687186     1.2862755
C           4.6124595     0.4789491     1.7387089
H           4.6986282     0.6963193     2.8002018
C           3.3821659     0.0956896     1.2091549
H           2.5423888     0.0145407     1.8890418
C           3.1999121    -0.2127520    -0.1499249
C           4.3180870    -0.0702857    -1.0097723
C           4.2903681    -0.2672299    -2.5129317
H           3.5463571     0.3738136    -3.0005551
H           4.0662608    -1.3001672    -2.7953619
H           5.2650121    -0.0099592    -2.9393236
C           5.5521375     0.3079301    -0.4557438
H           6.4069999     0.4007624    -1.1218184
27
035_C13H14_2-0-19-17 (-15,) energy =    -503.7725722
C           1.8224633    -0.6235164    -0.7253488
H           1.4321429     0.3175366    -1.1469555
C           0.8879982    -1.0792933     0.3811568
H           0.5546361    -0.3134417     1.0797942
C           0.4595043    -2.3316488     0.5471688
H          -0.2005229    -2.5669138     1.3805444
C           0.8176261    -3.4534923    -0.3873868
H           1.5190749    -4.1510159     0.1018284
H          -0.0748289    -4.0610546    -0.6022569
C           1.4006876    -2.9309093    -1.6708302
H           1.4453174    -3.6199794    -2.5128933
C           1.8198804    -1.6735264    -1.8299046
H           2.1744121    -1.3689118    -2.8074591
C           5.7425322     0.4910140     0.8968222
H           6.7081736     0.7833419     1.3008934
C           4.6662966     0.2267826     1.7371834
H           4.7703571     0.3137211     2.8156326
C           3.4402466    -0.1470486     1.1878475
H           2.6206784    -0.3679140     1.8621318
C           3.2499656    -0.3031645    -0.1937692
C           4.3288529     0.0336295    -1.0494607
C           4.2355752     0.0689663    -2.5616184
H           3.3104269     0.5428705    -2.9092319
H           4.2783833    -0.9320866    -3.0059792
H           5.0702918     0.6436777    -2.9751311
C           5.5567352     0.4014128    -0.4805327
H           6.3831272     0.6426194    -1.1457491
27
035_C13H14_2-0-19-17 (0,) energy =    -503.7772437
C           1.8991002    -0.7351969    -0.7598645
H           1.5264908     0.1397350    -1.3191125
C           0.9004115    -1.0532227     0.3327406
H           0.6395937    -0.2278380     0.9941594
C           0.3205349    -2.2397117     0.5233899
H          -0.3930333    -2.3600643     1.3372400
C           0.5791652    -3.4401906    -0.3417281
H           1.0495238    -4.2423740     0.2522149
H          -0.3776393    -3.8720263    -0.6777148
C           1.4346470    -3.1025912    -1.5299580
H           1.5801758    -3.8875857    -2.2708183
C           2.0001445    -1.9092623    -1.7239724
H           2.5885687    -1.7560031    -2.6226187
C           5.7542786     0.5293974     0.8696808
H           6.7081146     0.8593460     1.2728894
C           4.7351873     0.0989150     1.7140887
H           4.8760153     0.0893128     2.7918351
C           3.5191077    -0.3146552     1.1705761
H           2.7384554    -0.6623213     1.8389695
C           3.2933316    -0.3445766    -0.2126701
C           4.3114713     0.1453857    -1.0666813
C           4.1492797     0.2842157    -2.5670141
H           3.1315507     0.5687359    -2.8546704
H           4.3888429    -0.6461432    -3.0975187
H           4.8263944     1.0539050    -2.9512192
C           5.5276885     0.5566547    -0.5048336
H           6.3083175     0.9247185    -1.1675055
27
035_C13H14_2-0-19-17 (15,) energy =    -503.7807064
C           1.9627947    -0.8249624    -0.8043130
H           1.6144571    -0.0300076    -1.4846491
C           0.9091250    -1.0064134     0.2653763
H           0.6893624    -0.1265865     0.8690166
C           0.2390604    -2.1378784     0.4933682
H          -0.5158253    -2.1629235     1.2780435
C           0.4512464    -3.4046954    -0.2871057
H           0.7501368    -4.2211860     0.3916145
H          -0.5064212    -3.7432090    -0.7168761
C           1.4730941    -3.2390209    -1.3770388
H           1.6719378    -4.1100712    -1.9999120
C           2.1286001    -2.1010286    -1.6144314
H           2.8523506    -2.0705992    -2.4246571
C           5.7635378     0.5348150     0.8434366
H           6.7088075     0.8825226     1.2518939
C           4.7956558    -0.0254111     1.6726576
H           4.9719454    -0.1225079     2.7408180
C           3.5877676    -0.4588212     1.1257490
H           2.8392317    -0.9028582     1.7748855
C           3.3237458    -0.3658481    -0.2463925
C           4.2950376     0.2304247    -1.0856302
C           4.0783498     0.4425866    -2.5693341
H           3.0871393     0.8559853    -2.7899946
H           4.1690452    -0.4882517    -3.1429480
H           4.8216690     1.1395764    -2.9685448
C           5.5020053     0.6617288    -0.5201667
H           6.2478034     1.1187461    -1.1671790
27
035_C13H14_2-0-19-17 (30,) energy =    -503.7829081
C           2.0728363    -0.8875513    -0.9036962
H           1.7677743    -0.1770958    -1.6886454
C           0.9525176    -0.9517504     0.1098210
H           0.7318894    -0.0228805     0.6340161
C           0.2369789    -2.0463168     0.3777835
H          -0.5639535    -1.9959957     1.1141506
C           0.4621793    -3.3746710    -0.2910584
H           0.6502413    -4.1512404     0.4690063
H          -0.4640628    -3.7024866    -0.7926521
C           1.5951493    -3.3376793    -1.2799362
H           1.8353583    -4.2713724    -1.7865562
C           2.3001976    -2.2392397    -1.5578210
H           3.1118667    -2.2933873    -2.2808726
C           5.7911663     0.5662751     0.8228210
H           6.7227578     0.9279614     1.2502044
C           4.8742010    -0.1284471     1.6085120
H           5.0795273    -0.3174845     2.6590274
C           3.6846374    -0.5823834     1.0388413
H           2.9701843    -1.1290289     1.6479857
C           3.3885986    -0.3599946    -0.3109362
C           4.3122347     0.3526624    -1.1078611
C           4.0455679     0.6632725    -2.5656270
H           3.1623877     1.3033166    -2.6920780
H           3.8700424    -0.2395649    -3.1625762
H           4.8960796     1.1897421    -3.0094439
C           5.5032350     0.7997801    -0.5217604
H           6.2155246     1.3481175    -1.1345660
27
035_C13H14_2-0-19-17 (45,) energy =    -503.7834476
C           2.1329822    -0.9750428    -0.9872808
H           1.8914650    -0.3531643    -1.8623070
C           0.9570630    -0.8942402    -0.0389552
H           0.7395329     0.0923831     0.3671507
C           0.1999088    -1.9371994     0.3094070
H          -0.6355965    -1.7897675     0.9924225
C           0.4237590    -3.3367083    -0.1967468
H           0.5493631    -4.0278440     0.6534324
H          -0.4831950    -3.6985218    -0.7100116
C           1.6085648    -3.4370925    -1.1191964
H           1.8457404    -4.4264831    -1.5078224
C           2.3602030    -2.3928905    -1.4742472
H           3.2069394    -2.5386541    -2.1431155
C           5.7788476     0.5424918     0.8280492
H           6.6925060     0.9173537     1.2819972
C           4.9217515    -0.2900142     1.5461359
H           5.1580367    -0.5754994     2.5679529
C           3.7549353    -0.7571427     0.9435301
H           3.0819556    -1.4058639     1.4978545
C           3.4189521    -0.4065097    -0.3699449
C           4.2873963     0.4310005    -1.1020316
C           3.9965212     0.8457486    -2.5294167
H           3.0781357     1.4419576    -2.6071301
H           3.8745755    -0.0165766    -3.1962966
H           4.8145553     1.4541173    -2.9274023
C           5.4569940     0.8924994    -0.4825339
H           6.1268903     1.5406139    -1.0435485
27
035_C13H14_2-0-19-17 (60,) energy =    -503.7834784
C           2.2228767    -1.0927363    -1.0852040
H           2.0651280    -0.5869844    -2.0485712
C           0.9979771    -0.8434803    -0.2304210
H           0.8062594     0.1944317     0.0369709
C           0.1766863    -1.8031648     0.2015936
H          -0.6838040    -1.5376757     0.8142513
C           0.3606049    -3.2633126    -0.1137379
H           0.3961455    -3.8483007     0.8203199
H          -0.5287817    -3.6470122    -0.6417706
C           1.5949965    -3.5282436    -0.9330734
H           1.8082178    -4.5679910    -1.1774103
C           2.4156766    -2.5687330    -1.3665278
H           3.2935977    -2.8313464    -1.9546109
C           5.7691417     0.5451862     0.8191630
H           6.6557384     0.9510652     1.2993927
C           4.9987515    -0.4257255     1.4583994
H           5.2761315    -0.7883206     2.4447897
C           3.8666756    -0.9298222     0.8217601
H           3.2604759    -1.6864344     1.3130898
C           3.4810440    -0.4840233    -0.4490743
C           4.2579652     0.4971680    -1.0994906
C           3.9090427     1.0295481    -2.4742754
H           2.9233823     1.5112169    -2.4945821
H           3.8948548     0.2384529    -3.2343315
H           4.6429097     1.7757732    -2.7941409
C           5.3946038     0.9948774    -0.4457189
H           5.9961312     1.7520689    -0.9440108
27
035_C13H14_2-0-19-17 (75,) energy =    -503.7834829
C           2.3269559    -1.2263838    -1.1532376
H           2.2663343    -0.8367181    -2.1799916
C           1.0585548    -0.8211963    -0.4287820
H           0.9057416     0.2486275    -0.2956843
C           0.1605492    -1.6845633     0.0505561
H          -0.7225419    -1.3100688     0.5664133
C           0.2867299    -3.1784332    -0.0811407
H           0.2288954    -3.6503505     0.9138598
H          -0.5846267    -3.5815033    -0.6245975
C           1.5569097    -3.5943250    -0.7731403
H           1.7263601    -4.6641699    -0.8871631
C           2.4583807    -2.7310728    -1.2469715
H           3.3579396    -3.1011317    -1.7362969
C           5.7655164     0.5487795     0.8249405
H           6.6222717     0.9936503     1.3244035
C           5.1088216    -0.5465713     1.3844449
H           5.4455463    -0.9678603     2.3281272
C           4.0134540    -1.0998052     0.7241126
H           3.4970689    -1.9542337     1.1536252
C           3.5553823    -0.5825924    -0.4942475
C           4.2142515     0.5285429    -1.0614468
C           3.7732518     1.1499748    -2.3706264
H           2.7378050     1.5104528    -2.3309522
H           3.8333781     0.4413563    -3.2064094
H           4.4075921     2.0054402    -2.6225483
C           5.3146437     1.0739687    -0.3849889
H           5.8265091     1.9291995    -0.8209413
27
035_C13H14_2-0-19-17 (90,) energy =    -503.7832272
C           2.4297433    -1.3323879    -1.1887668
H           2.4735213    -1.0502867    -2.2528059
C           1.1234160    -0.8050368    -0.6261316
H           1.0073821     0.2772795    -0.6143957
C           0.1517375    -1.5795582    -0.1392342
H          -0.7527204    -1.1208610     0.2579110
C           0.2212300    -3.0824940    -0.1046369
H           0.0710059    -3.4428734     0.9267695
H          -0.6251512    -3.5098803    -0.6684770
C           1.5182006    -3.6163097    -0.6502417
H           1.6412235    -4.6985084    -0.6537843
C           2.4955706    -2.8412460    -1.1259098
H           3.4097567    -3.2947106    -1.5059534
C           5.7846283     0.5591719     0.8285624
H           6.6205699     1.0355532     1.3341485
C           5.2439054    -0.6278310     1.3189415
H           5.6511016    -1.0910030     2.2139991
C           4.1723111    -1.2216501     0.6528224
H           3.7456631    -2.1459592     1.0327589
C           3.6237075    -0.6526077    -0.5025355
C           4.1696921     0.5499398    -1.0023471
C           3.6363964     1.2172681    -2.2526717
H           2.5657582     1.4438402    -2.1814177
H           3.7694845     0.5878741    -3.1424293
H           4.1595392     2.1601979    -2.4391942
C           5.2450626     1.1351524    -0.3212161
H           5.6680312     2.0608676    -0.7055638
27
035_C13H14_2-0-19-17 (105,) energy =    -503.7817609
C           2.4897875    -1.4490650    -1.1878860
H           2.6280096    -1.2613919    -2.2672159
C           1.1491301    -0.8529011    -0.7986675
H           1.0488575     0.2254079    -0.8936887
C           0.1228203    -1.5672830    -0.3321555
H          -0.8042515    -1.0627641    -0.0632458
C           0.1576588    -3.0606442    -0.1502699
H          -0.0712835    -3.3177559     0.8976320
H          -0.6558524    -3.5286500    -0.7297178
C           1.4775419    -3.6625670    -0.5494485
H           1.5696307    -4.7446089    -0.4660151
C           2.5101360    -2.9475092    -1.0014324
H           3.4350825    -3.4507125    -1.2790623
C           5.8054517     0.5400727     0.8133842
H           6.6348266     1.0383383     1.3085253
C           5.3709313    -0.7109530     1.2437040
H           5.8566521    -1.2064492     2.0803781
C           4.3054640    -1.3311916     0.5906793
H           3.9609908    -2.3031457     0.9321705
C           3.6469765    -0.7216534    -0.4838367
C           4.1039258     0.5369228    -0.9392553
C           3.5030169     1.2317789    -2.1428372
H           2.4478981     1.4922146    -1.9996530
H           3.5541359     0.6058848    -3.0432341
H           4.0411428     2.1597777    -2.3587713
C           5.1728918     1.1474527    -0.2711118
H           5.5223903     2.1169046    -0.6197659
27
035_C13H14_2-0-19-17 (120,) energy =    -503.7789240
C           2.5603340    -1.5324268    -1.1763329
H           2.8075187    -1.4468025    -2.2511191
C           1.1985305    -0.8897106    -0.9890573
H           1.1078118     0.1585244    -1.2552290
C           0.1317121    -1.5339292    -0.5108639
H          -0.8108113    -0.9996743    -0.3983820
C           0.1371883    -2.9864013    -0.1180282
H          -0.1178648    -3.0912596     0.9502580
H          -0.6712028    -3.5194726    -0.6453042
C           1.4542928    -3.6555776    -0.4016599
H           1.5092186    -4.7289553    -0.2254965
C           2.5261375    -3.0094986    -0.8655202
H           3.4415422    -3.5634465    -1.0668618
C           5.8477777     0.5324119     0.8182755
H           6.6769906     1.0424178     1.3015373
C           5.5016291    -0.7656117     1.1831442
H           6.0567239    -1.2893588     1.9571005
C           4.4372755    -1.3995013     0.5424283
H           4.1655941    -2.4068348     0.8421532
C           3.6803685    -0.7601711    -0.4487185
C           4.0562808     0.5457140    -0.8452616
C           3.3710335     1.3043083    -1.9633273
H           2.4684516     1.8246136    -1.6179045
H           3.0697698     0.6521550    -2.7902532
H           4.0415443     2.0669135    -2.3722281
C           5.1289456     1.1678703    -0.1925194
H           5.4129747     2.1724018    -0.4994187
27
035_C13H14_2-0-19-17 (135,) energy =    -503.7744581
C           2.6119509    -1.5947234    -1.2227102
H           2.9692667    -1.5971710    -2.2704769
C           1.2423432    -0.9391681    -1.2433236
H           1.1563666     0.0275561    -1.7235103
C           0.1499515    -1.4925902    -0.7110250
H          -0.7992719    -0.9607714    -0.7615513
C           0.1336018    -2.8488567    -0.0596153
H          -0.0764103    -2.7546239     1.0196524
H          -0.7093450    -3.4392641    -0.4529335
C           1.4197618    -3.5986233    -0.2766636
H           1.4288471    -4.6538509    -0.0076491
C           2.5140731    -3.0427706    -0.8005878
H           3.3981741    -3.6561076    -0.9634802
C           5.8577248     0.5210454     0.8168049
H           6.6774900     1.0392782     1.3072854
C           5.6037113    -0.8213445     1.0780023
H           6.2242007    -1.3778653     1.7756531
C           4.5454257    -1.4592964     0.4313859
H           4.3486103    -2.4999631     0.6649333
C           3.6934919    -0.7873217    -0.4578089
C           3.9943049     0.5621536    -0.7700634
C           3.2631926     1.3709835    -1.8226199
H           2.3159196     1.7808662    -1.4516765
H           3.0366610     0.7811201    -2.7179149
H           3.8781395     2.2196914    -2.1382660
C           5.0587828     1.1897541    -0.1079267
H           5.2751084     2.2292832    -0.3452717
27
035_C13H14_2-0-19-17 (150,) energy =    -503.7701969
C           2.7297636    -1.6994040    -1.3226825
H           3.1988237    -1.8443538    -2.3126167
C           1.3818183    -1.0480043    -1.5791084
H           1.3366636    -0.2635509    -2.3247279
C           0.2553589    -1.4244474    -0.9687686
H          -0.6804670    -0.9206018    -1.2057176
C           0.1919019    -2.5699533     0.0064903
H           0.0852264    -2.1971708     1.0396720