21
095_C9H9N3_17-0-8-9 (-165,) energy =    -512.6133326
C           2.7820192    -1.6067892    -0.9006306
H           3.1826234    -2.5001795    -1.3918874
H           2.3629258    -1.9433883     0.0563593
C           5.9118511     1.1715204    -0.0797836
H           6.6725038     1.9199705     0.1201041
C           4.6631213     1.5455168    -0.5732609
H           4.4347078     2.5928404    -0.7633475
N           3.6794120     0.6770440    -0.8414116
C           3.9160846    -0.6201374    -0.6313623
C           5.1365856    -1.0977197    -0.1354639
H           5.2883920    -2.1630048     0.0204710
C           6.1494681    -0.1850779     0.1449619
H           7.1079782    -0.5259390     0.5270394
C          -0.0907169    -0.0509922    -2.4299938
H          -1.0016528     0.5263539    -2.5154705
C           0.6409970    -0.3112105    -1.2998394
H           0.5282892    -0.0124374    -0.2686619
N           1.6999329    -1.0950481    -1.7145353
C           1.5553689    -1.2515669    -3.0677793
H           2.2599266    -1.8318716    -3.6504347
N           0.4867985    -0.6442658    -3.5323695
21
095_C9H9N3_17-0-8-9 (-150,) energy =    -512.6140937
C           2.7310732    -1.5750922    -0.8402182
H           3.1184592    -2.5089013    -1.2589234
H           2.2721661    -1.8303414     0.1241630
C           5.8855584     1.1760818    -0.0348433
H           6.6470425     1.9204416     0.1767464
C           4.5727473     1.5634003    -0.3042828
H           4.2965245     2.6164788    -0.3023131
N           3.5847205     0.7015631    -0.5705638
C           3.8797696    -0.6026599    -0.5964755
C           5.1644386    -1.0921512    -0.3321141
H           5.3619673    -2.1606037    -0.3594180
C           6.1833410    -0.1859275    -0.0459791
H           7.1914261    -0.5367872     0.1577833
C          -0.0388410    -0.0479911    -2.5844476
H          -0.9068549     0.5747665    -2.7552463
C           0.6911039    -0.1797571    -1.4307641
H           0.6247130     0.2908987    -0.4625717
N           1.6888841    -1.0890659    -1.7249087
C           1.5073159    -1.4490752    -3.0352537
H           2.1573018    -2.1657180    -3.5218148
N           0.4768519    -0.8461212    -3.5836061
21
095_C9H9N3_17-0-8-9 (-135,) energy =    -512.6151053
C           2.6837751    -1.5435258    -0.7377295
H           3.0481550    -2.5162928    -1.0797683
H           2.1821642    -1.7072549     0.2244527
C           5.8941167     1.1646331    -0.0256680
H           6.6677398     1.9002656     0.1719226
C           4.5514362     1.5447425    -0.0711467
H           4.2663609     2.5822973     0.0948277
N           3.5481376     0.6931121    -0.3043109
C           3.8531792    -0.5926928    -0.5261521
C           5.1661898    -1.0727863    -0.4926668
H           5.3717606    -2.1244901    -0.6724571
C           6.2039755    -0.1769433    -0.2373509
H           7.2342479    -0.5212145    -0.2099383
C           0.0616404    -0.0161534    -2.7015270
H          -0.7567143     0.6440084    -2.9564791
C           0.7542328    -0.0804466    -1.5189584
H           0.7031091     0.4860670    -0.6030528
N           1.6920644    -1.0803077    -1.6952488
C           1.5145266    -1.5565516    -2.9685579
H           2.1222942    -2.3608898    -3.3641185
N           0.5410207    -0.9429508    -3.6027506
21
095_C9H9N3_17-0-8-9 (-120,) energy =    -512.6159551
C           2.6339692    -1.5266254    -0.6425756
H           2.9838597    -2.5254996    -0.9171800
H           2.0916015    -1.6139503     0.3059116
C           5.8692560     1.1717251    -0.0242822
H           6.6482364     1.9063344     0.1552495
C           4.5251570     1.5107817     0.1467993
H           4.2459097     2.5139937     0.4644403
N           3.5160498     0.6574418    -0.0498955
C           3.8138843    -0.5878963    -0.4506155
C           5.1277377    -1.0239640    -0.6426025
H           5.3263832    -2.0429791    -0.9625391
C           6.1737079    -0.1269968    -0.4243315
H           7.2049450    -0.4380263    -0.5674987
C           0.1686622    -0.0163453    -2.8159324
H          -0.5974854     0.6694512    -3.1525361
C           0.8226951    -0.0224902    -1.6094095
H           0.7845865     0.6200767    -0.7442971
N           1.6967618    -1.0916812    -1.6706260
C           1.5223920    -1.6641651    -2.9034688
H           2.0861504    -2.5366776    -3.2095484
N           0.6093613    -1.0462656    -3.6191860
21
095_C9H9N3_17-0-8-9 (-105,) energy =    -512.6164729
C           2.5937830    -1.5204495    -0.5506980
H           2.9311622    -2.5377174    -0.7676354
H           2.0182163    -1.5440499     0.3804719
C           5.8436315     1.1730473    -0.0069791
H           6.6272690     1.9057541     0.1596183
C           4.5286267     1.4465945     0.3747663
H           4.2765440     2.3962238     0.8436837
N           3.5160976     0.5901032     0.2072645
C           3.7816423    -0.5915253    -0.3715997
C           5.0655393    -0.9580691    -0.7853310
H           5.2381737    -1.9259223    -1.2474317
C           6.1149116    -0.0587470    -0.5981866
H           7.1236617    -0.3166390    -0.9089096
C           0.2986265    -0.0283471    -2.9165597
H          -0.4003836     0.6841023    -3.3342672
C           0.9306692     0.0244722    -1.6991382
H           0.9259428     0.7411586    -0.8928176
N           1.7098545    -1.1157512    -1.6397935
C           1.5072247    -1.7850536    -2.8176119
H           1.9997198    -2.7262749    -3.0280804
N           0.6629052    -1.1622711    -3.6100833
21
095_C9H9N3_17-0-8-9 (-90,) energy =    -512.6166360
C           2.5437255    -1.4871836    -0.4686259
H           2.8566108    -2.5258945    -0.6092159
H           1.9369899    -1.4287222     0.4397411
C           5.8371394     1.1644711     0.0052179
H           6.6351002     1.8841833     0.1602123
C           4.5805058     1.3701087     0.5759154
H           4.3874516     2.2537943     1.1817082
N           3.5537718     0.5242104     0.4319236
C           3.7487991    -0.5779076    -0.3082132
C           4.9714154    -0.8711337    -0.9211406
H           5.0843908    -1.7744826    -1.5139225
C           6.0338900     0.0160451    -0.7600971
H           6.9963007    -0.1863345    -1.2220892
C           0.4139969    -0.0638923    -3.0227600
H          -0.2311315     0.6512894    -3.5156592
C           1.0033240     0.0431447    -1.7875504
H           1.0005091     0.8122584    -1.0302079
N           1.7180358    -1.1276623    -1.6186621
C           1.5239570    -1.8676243    -2.7542944
H           1.9734899    -2.8448141    -2.8799444
N           0.7424473    -1.2610693    -3.6208339
21
095_C9H9N3_17-0-8-9 (-75,) energy =    -512.6166745
C           2.4942844    -1.4236632    -0.4007777
H           2.7819595    -2.4783955    -0.4543879
H           1.8645843    -1.2820710     0.4819243
C           5.8588990     1.1424520     0.0491889
H           6.6818206     1.8324652     0.2088820
C           4.6815098     1.2656429     0.7858654
H           4.5740038     2.0546544     1.5281740
N           3.6284461     0.4501482     0.6435465
C           3.7188241    -0.5360984    -0.2603026
C           4.8576600    -0.7401817    -1.0483537
H           4.8830986    -1.5486532    -1.7736075
C           5.9453106     0.1144307    -0.8900492
H           6.8437669    -0.0198136    -1.4861928
C           0.5020943    -0.1396366    -3.1334288
H          -0.0996290     0.5553914    -3.7039311
C           1.0567184     0.0459246    -1.8914479
H           1.0542321     0.8741513    -1.1986943
N           1.7200082    -1.1319561    -1.6039869
C           1.5324032    -1.9542497    -2.6824164
H           1.9465595    -2.9544505    -2.7127147
N           0.8027147    -1.3924306    -3.6215566
21
095_C9H9N3_17-0-8-9 (-60,) energy =    -512.6168720
C           2.4404196    -1.3331619    -0.3529260
H           2.7004659    -2.3962571    -0.3047850
H           1.7917598    -1.1052444     0.4974014
C           5.9054456     1.0984517     0.0896167
H           6.7634100     1.7416058     0.2601844
C           4.8180707     1.1263994     0.9610483
H           4.8155660     1.7930509     1.8216806
N           3.7270106     0.3627905     0.8112845
C           3.6879637    -0.4723238    -0.2359990
C           4.7299451    -0.5735117    -1.1661460
H           4.6486657    -1.2580811    -2.0056626
C           5.8559730     0.2272125    -0.9997305
H           6.6806610     0.1721834    -1.7050917
C           0.5629761    -0.2521345    -3.2492526
H          -0.0072605     0.4012671    -3.8961436
C           1.0805745     0.0289780    -2.0094152
H           1.0660454     0.9135395    -1.3901107
N           1.7130319    -1.1300110    -1.6005952
C           1.5445454    -2.0376090    -2.6121563
H           1.9403261    -3.0433699    -2.5435457
N           0.8564854    -1.5462122    -3.6195414
21
095_C9H9N3_17-0-8-9 (-45,) energy =    -512.6172236
C           2.3776606    -1.2341239    -0.3337074
H           2.5963887    -2.2978687    -0.1838291
H           1.7097902    -0.9211404     0.4738380
C           5.9549072     1.0284640     0.1111886
H           6.8489404     1.6174688     0.2918533
C           4.9544831     0.9482476     1.0787368
H           5.0576104     1.4749973     2.0259270
N           3.8245354     0.2461078     0.9213555
C           3.6562830    -0.4164360    -0.2312821
C           4.6020517    -0.4000111    -1.2632529
H           4.4165269    -0.9451779    -2.1838837
C           5.7696072     0.3376742    -1.0869817
H           6.5217837     0.3727209    -1.8704230
C           0.6280350    -0.3477025    -3.3707608
H           0.0896390     0.2622169    -4.0839858
C           1.0965323     0.0162618    -2.1330273
H           1.0635929     0.9426928    -1.5789613
N           1.7018731    -1.1148985    -1.6181627
C           1.5672525    -2.0898193    -2.5707967
H           1.9512414    -3.0905290    -2.4158481
N           0.9254547    -1.6660235    -3.6377882
21
095_C9H9N3_17-0-8-9 (-30,) energy =    -512.6175083
C           2.3247660    -1.1242645    -0.2813152
H           2.4943755    -2.1749197    -0.0174339
H           1.6441731    -0.7150315     0.4710429
C           6.0075658     0.9712233     0.1179131
H           6.9340444     1.5092256     0.2940349
C           5.0927867     0.7809140     1.1537019
H           5.2974029     1.1692188     2.1501229
N           3.9300088     0.1350285     1.0061791
C           3.6378565    -0.3581545    -0.2057617
C           4.4881210    -0.2225874    -1.3080776
H           4.2056295    -0.6323785    -2.2725180
C           5.6930815     0.4569890    -1.1394540
H           6.3741294     0.5824490    -1.9768899
C           0.6843195    -0.4707890    -3.4338955
H           0.1660568     0.0811789    -4.2067345
C           1.0893781    -0.0204135    -2.2023185
H           1.0134360     0.9380275    -1.7103104
N           1.6909749    -1.1043056    -1.5897861
C           1.6185701    -2.1392039    -2.4842761
H           2.0152196    -3.1193514    -2.2503307
N           1.0179269    -1.7966895    -3.6031891
21
095_C9H9N3_17-0-8-9 (-15,) energy =    -512.6176264
C           2.2578400    -1.0123144    -0.2566177
H           2.3590125    -2.0365572     0.1203810
H           1.5677105    -0.4998557     0.4205408
C           6.0455886     0.8891023     0.1333262
H           7.0020156     1.3710531     0.3115258
C           5.1956518     0.5881045     1.1987502
H           5.4824543     0.8331621     2.2202005
N           4.0031678     0.0014304     1.0515198
C           3.6112659    -0.3170497    -0.1911316
C           4.3877446    -0.0598349    -1.3243563
H           4.0289047    -0.3310074    -2.3114784
C           5.6273184     0.5564650    -1.1535684
H           6.2541209     0.7732402    -2.0144036
C           0.7284185    -0.5836936    -3.5009714
H           0.2213602    -0.0931675    -4.3212058
C           1.0540250    -0.0593537    -2.2750616
H           0.9109207     0.9154967    -1.8325612
N           1.6729049    -1.0851343    -1.5842529
C           1.6903719    -2.1616950    -2.4310358
H           2.1219346    -3.1093868    -2.1341107
N           1.1292283    -1.8988598    -3.5912696
21
095_C9H9N3_17-0-8-9 (0,) energy =    -512.6175611
C           2.1992769    -0.8907983    -0.2337417
H           2.2255029    -1.8715795     0.2528691
H           1.5121037    -0.2742017     0.3548865
C           6.0846032     0.8060961     0.1395613
H           7.0684956     1.2301197     0.3154026
C           5.2891028     0.3963747     1.2113109
H           5.6465117     0.4979878     2.2348853
N           4.0701614    -0.1326776     1.0679443
C           3.5920630    -0.2763039    -0.1773773
C           4.3065555     0.1029534    -1.3164010
H           3.8799436    -0.0290156    -2.3048095
C           5.5774893     0.6541885    -1.1488908
H           6.1595891     0.9596160    -2.0142330
C           0.7594286    -0.6962489    -3.5409569
H           0.2569767    -0.2725766    -4.4003339
C           1.0100017    -0.1002528    -2.3301059
H           0.7956880     0.8831044    -1.9378325
N           1.6555966    -1.0586287    -1.5699055
C           1.7630930    -2.1692871    -2.3640552
H           2.2354397    -3.0767291    -2.0094313
N           1.2323474    -1.9901838    -3.5542501
21
095_C9H9N3_17-0-8-9 (15,) energy =    -512.6173302
C           2.1487058    -0.7642486    -0.2304360
H           2.0988299    -1.6843985     0.3592465
H           1.4744208    -0.0494119     0.2545148
C           6.1193917     0.7263366     0.1318673
H           7.1271133     1.0926743     0.3024239
C           5.3672036     0.2061262     1.1863669
H           5.7829326     0.1622606     2.1918210
N           4.1243292    -0.2663804     1.0466335
C           3.5754015    -0.2332392    -0.1769815
C           4.2422088     0.2695783    -1.2974507
H           3.7595587     0.2763068    -2.2690361
C           5.5396007     0.7556290    -1.1347298
H           6.0870195     1.1498246    -1.9866939
C           0.7766757    -0.8222731    -3.5735128
H           0.2716328    -0.4732771    -4.4643725
C           0.9646137    -0.1521382    -2.3903025
H           0.6814043     0.8342713    -2.0529384
N           1.6441659    -1.0318914    -1.5668717
C           1.8338461    -2.1730401    -2.2995892
H           2.3496557    -3.0320530    -1.8895622
N           1.3217078    -2.0856168    -3.5083683
21
095_C9H9N3_17-0-8-9 (30,) energy =    -512.6169443
C           2.1058777    -0.6349288    -0.2374918
H           1.9834431    -1.4856877     0.4386341
H           1.4529992     0.1616456     0.1370119
C           6.1500780     0.6413596     0.1293337
H           7.1783241     0.9476108     0.2958959
C           5.4291608     0.0034035     1.1388692
H           5.8897964    -0.1941184     2.1054473
N           4.1629064    -0.4066969     1.0000163
C           3.5592695    -0.1853722    -0.1765306
C           4.1931509     0.4490267    -1.2499297
H           3.6663119     0.6006794    -2.1866932
C           5.5134454     0.8659520    -1.0906271
H           6.0357570     1.3574227    -1.9070298
C           0.7900217    -0.9557843    -3.5908929
H           0.2822950    -0.6846412    -4.5069360
C           0.9311229    -0.2064125    -2.4493567
H           0.5922229     0.7814839    -2.1729539
N           1.6411522    -1.0009615    -1.5670519
C           1.8923010    -2.1746428    -2.2256030
H           2.4439891    -2.9808038    -1.7590918
N           1.3923893    -2.1852918    -3.4426969
21
095_C9H9N3_17-0-8-9 (45,) energy =    -512.6164294
C           2.0766858    -0.5021098    -0.2529941
H           1.8949604    -1.2765258     0.4969730
H           1.4474644     0.3563045     0.0071587
C           6.1810230     0.5672522     0.1073146
H           7.2270760     0.8117175     0.2649086
C           5.4837069    -0.1916967     1.0460188
H           5.9793734    -0.5479819     1.9474777
N           4.1957721    -0.5351042     0.9135932
C           3.5478440    -0.1199548    -0.1836277
C           4.1582081     0.6484711    -1.1820271
H           3.5951458     0.9523247    -2.0593910
C           5.4987381     0.9939269    -1.0325694
H           6.0022677     1.5857169    -1.7921963
C           0.8161815    -1.1038737    -3.5917890
H           0.3101248    -0.9161076    -4.5294016
C           0.9197952    -0.2708641    -2.5056715
H           0.5422523     0.7208349    -2.3024914
N           1.6462227    -0.9757939    -1.5627790
C           1.9441645    -2.1840097    -2.1331239
H           2.5173724    -2.9355938    -1.6056162
N           1.4586260    -2.2977179    -3.3511387
21
095_C9H9N3_17-0-8-9 (60,) energy =    -512.6159289
C           2.0462730    -0.3853912    -0.2681473
H           1.8190356    -1.0919123     0.5342385
H           1.4363577     0.5100911    -0.1101741
C           6.1967914     0.4974210     0.0693563
H           7.2576039     0.6811097     0.2099086
C           5.5179888    -0.3909948     0.9015460
H           6.0425769    -0.9108533     1.7013293
N           4.2120963    -0.6673952     0.7842326
C           3.5273716    -0.0504629    -0.1886924
C           4.1188012     0.8600280    -1.0731877
H           3.5259848     1.3284501    -1.8535351
C           5.4767625     1.1353320    -0.9418103
H           5.9647971     1.8353471    -1.6144873
C           0.8753186    -1.2429747    -3.5852058
H           0.3987055    -1.1265095    -4.5494613
C           0.9570089    -0.3259556    -2.5671778
H           0.5862987     0.6827824    -2.4562631
N           1.6470621    -0.9597671    -1.5498709
C           1.9478087    -2.2127836    -2.0113868
H           2.4972464    -2.9238544    -1.4080524
N           1.4955860    -2.4198778    -3.2301203
21
095_C9H9N3_17-0-8-9 (75,) energy =    -512.6156847
C           2.0135396    -0.2812227    -0.2895616
H           1.7442485    -0.9227499     0.5531672
H           1.4224275     0.6372246    -0.2248201
C           6.1972977     0.4408084     0.0037313
H           7.2694085     0.5685034     0.1179108
C           5.5296518    -0.5692353     0.6953765
H           6.0749081    -1.2403255     1.3567408
N           4.2109908    -0.7843092     0.6034983
C           3.5001950     0.0195961    -0.2003535
C           4.0792107     1.0616361    -0.9341243
H           3.4651094     1.6857545    -1.5771571
C           5.4513394     1.2741386    -0.8300900
H           5.9293707     2.0753703    -1.3870359
C           0.9513380    -1.3834457    -3.5726090
H           0.5230950    -1.3355828    -4.5650561
C           1.0280884    -0.3831357    -2.6359924
H           0.6992085     0.6459233    -2.6341066
N           1.6422168    -0.9506971    -1.5347544
C           1.9098038    -2.2504583    -1.8700764
H           2.4035237    -2.9229808    -1.1808517
N           1.5040293    -2.5473790    -3.0867720
21
095_C9H9N3_17-0-8-9 (90,) energy =    -512.6157302
C           1.9794615    -0.1883131    -0.3141195
H           1.6744112    -0.7622191     0.5646760
H           1.4116207     0.7463586    -0.3287592
C           6.1825526     0.4213755    -0.0563078
H           7.2605779     0.5116139     0.0357758
C           5.5192635    -0.6886780     0.4687261
H           6.0755744    -1.4748078     0.9763038
N           4.1951012    -0.8637496     0.3946691
C           3.4712399     0.0818715    -0.2230398
C           4.0434915     1.2306763    -0.7787781
H           3.4195025     1.9729302    -1.2686789
C           5.4239868     1.4021209    -0.6930660
H           5.8973174     2.2848772    -1.1142122
C           1.0107918    -1.5140370    -3.5410585
H           0.6458292    -1.5270332    -4.5595434
C           1.1189770    -0.4377444    -2.6967517
H           0.8817306     0.6100312    -2.8102968
N           1.6151460    -0.9454258    -1.5100056
C           1.7905590    -2.2886034    -1.7075977
H           2.1895494    -2.9265758    -0.9303126
N           1.4319084    -2.6670989    -2.9163642
21
095_C9H9N3_17-0-8-9 (105,) energy =    -512.6157817
C           1.9881567    -0.1356868    -0.3497257
H           1.6654327    -0.6538612     0.5577820
H           1.4376263     0.8071433    -0.4160889
C           6.1992992     0.4269602    -0.1185869
H           7.2798638     0.5005191    -0.0429865
C           5.5476832    -0.7644828     0.2088572
H           6.1166632    -1.6298468     0.5444831
N           4.2228207    -0.9253402     0.1431159
C           3.4839925     0.1163311    -0.2684734
C           4.0419396     1.3500429    -0.6142128
H           3.4057221     2.1689675    -0.9382826
C           5.4259228     1.5071555    -0.5369301
H           5.8888018     2.4546801    -0.7990004
C           1.0702284    -1.6493456    -3.5048595
H           0.7692499    -1.7191621    -4.5418131
C           1.2550139    -0.5160186    -2.7540415
H           1.1583296     0.5361254    -2.9788815
N           1.6132958    -0.9602155    -1.4941270
C           1.6383064    -2.3272775    -1.5589753
H           1.9139074    -2.9283693    -0.7031066
N           1.3098781    -2.7773603    -2.7512788
21
095_C9H9N3_17-0-8-9 (120,) energy =    -512.6155579
C           3.0365305    -1.7311232    -1.4184270
H           3.4337272    -2.2380033    -2.3038973
H           2.8459524    -2.4940055    -0.6574774
C           5.9188808     1.1329040    -0.1507122
H           6.6496631     1.8929049     0.1083577
C           5.3267460     1.1241477    -1.4164109
H           5.5945063     1.8772459    -2.1556850
N           4.4242100     0.2193190    -1.8043522
C           4.0612295    -0.7234940    -0.9221781
C           4.5998281    -0.8029126     0.3645609
H           4.2810312    -1.5868181     1.0460535
C           5.5473967     0.1437388     0.7561647
H           5.9826938     0.1088131     1.7511979
C          -0.2168808    -0.1906689    -1.7419453
H          -1.1876885     0.1894336    -1.4523871
C           0.7158699    -0.8141180    -0.9525782
H           0.7335586    -1.0718539     0.0962915
N           1.7680617    -1.1237473    -1.7957112
C           1.4191777    -0.6581058    -3.0341943
H           2.0851260    -0.7536342    -3.8811437
N           0.2289958    -0.0980634    -3.0424061
21
095_C9H9N3_17-0-8-9 (135,) energy =    -512.6149800
C           2.9872058    -1.7095043    -1.3134457
H           3.4054055    -2.2930115    -2.1420035
H           2.7580450    -2.4137556    -0.5076651
C           5.9337313     1.1362967    -0.1490214
H           6.6779153     1.8907448     0.0871684
C           5.1760763     1.2312284    -1.3187417
H           5.3267124     2.0614004    -2.0068470
N           4.2468143     0.3392793    -1.6735590
C           4.0223699    -0.6936185    -0.8503995
C           4.7319075    -0.8812803     0.3393275
H           4.5208137    -1.7356764     0.9767652
C           5.7061070     0.0517653     0.6947990
H           6.2710678    -0.0653150     1.6156397
C          -0.2244837    -0.1587326    -1.8720614
H          -1.1993994     0.2532268    -1.6471916
C           0.6697212    -0.7313776    -1.0041032
H           0.6472937    -0.9100069     0.0610389
N           1.7470093    -1.1159684    -1.7825964
C           1.4498874    -0.7401118    -3.0641349
H           2.1435668    -0.9063671    -3.8773759
N           0.2689039    -0.1699038    -3.1588542
21
095_C9H9N3_17-0-8-9 (150,) energy =    -512.6141889
C           2.9407632    -1.6952080    -1.2190324
H           3.3749687    -2.3471311    -1.9872701
H           2.6729024    -2.3398630    -0.3752836
C           5.9280587     1.1432453    -0.1340854
H           6.6774204     1.8967226     0.0884214
C           5.0157513     1.3370956    -1.1722933
H           5.0467075     2.2452436    -1.7719680
N           4.0691184     0.4520374    -1.5028564
C           3.9872634    -0.6741078    -0.7859297
C           4.8563828    -0.9638362     0.2719563
H           4.7547686    -1.8916601     0.8290220
C           5.8447908    -0.0381565     0.6012158
H           6.5319059    -0.2335963     1.4201138
C          -0.2031355    -0.1144409    -2.0104070
H          -1.1670554     0.3511694    -1.8530613
C           0.6563538    -0.6150664    -1.0662793
H           0.6108629    -0.6700038     0.0115869
N           1.7324480    -1.1188111    -1.7742987
C           1.4702071    -0.8776741    -3.0950150
H           2.1695023    -1.1598509    -3.8712249
N           0.3116349    -0.2842126    -3.2776035
21
095_C9H9N3_17-0-8-9 (165,) energy =    -512.6135174
C           2.8880497    -1.6783943    -1.1131266
H           3.3235830    -2.4096006    -1.8055180
H           2.5743080    -2.2417536    -0.2268658
C           5.9168891     1.1549508    -0.1226596
H           6.6690097     1.9094538     0.0866502
C           4.8659815     1.4265397    -0.9976020
H           4.7867367     2.3982804    -1.4819847
N           3.9060229     0.5441395    -1.3024956
C           3.9577098    -0.6594440    -0.7261845
C           4.9715495    -1.0304388     0.1666495
H           4.9742344    -2.0209117     0.6151441
C           5.9679109    -0.1068467     0.4707556
H           6.7665124    -0.3650108     1.1610701
C          -0.1686966    -0.0698881    -2.1437649
H          -1.1153202     0.4474877    -2.0610636
C           0.6486088    -0.5013908    -1.1306221
H           0.5792663    -0.4367444    -0.0546676
N           1.7175999    -1.1181838    -1.7530973
C           1.4949486    -1.0065316    -3.0984604
H           2.1960532    -1.4008691    -3.8229550
N           0.3662647    -0.3916085    -3.3725624
21
095_C9H9N3_17-0-8-9 (180,) energy =    -512.6131666
C           2.8377692    -1.6521358    -0.9985810
H           3.2593980    -2.4745986    -1.5885768
H           2.4661879    -2.1008096    -0.0692868
C           5.9192920     1.1602766    -0.1095870
H           6.6755812     1.9133504     0.0895285
C           4.7585838     1.4896673    -0.8065865
H           4.5949602     2.5061294    -1.1603364
N           3.7857323     0.6122161    -1.0876797
C           3.9418391    -0.6467073    -0.6737833
C           5.0717903    -1.0790479     0.0341751
H           5.1588396    -2.1151363     0.3527252
C           6.0756887    -0.1588415     0.3196355
H           6.9638963    -0.4640786     0.8663212
C          -0.1285399    -0.0618076    -2.2887941
H          -1.0642575     0.4812874    -2.2902422
C           0.6343967    -0.4258435    -1.2090240
H           0.5251066    -0.2657552    -0.1466191
N           1.7137129    -1.1122970    -1.7310515
C           1.5507646    -1.1079454    -3.0901165
H           2.2692072    -1.5794430    -3.7488096
N           0.4501340    -0.4940916    -3.4626940
