22
311_C9H12O_9-11-12-13 (-165,) energy =    -425.3904209
C           2.0351501    -1.5922315    -1.3199385
H           2.8611142    -1.7192534    -2.0283496
H           1.5725771    -0.6213958    -1.5308726
H           1.2921239    -2.3741542    -1.5174600
C           2.5466843    -1.6730291     0.1304048
H           3.0020407    -2.6590613     0.2818871
H           1.7013824    -1.6352538     0.8203152
C           5.7741652     1.1882382     0.7044792
H           6.5924568     1.8969507     0.7999085
C           4.4657472     1.6217010     0.8608705
H           4.2396404     2.6595464     1.0852972
C           3.3782547     0.7364527     0.7555241
O           2.1804405     1.3868309     0.9377371
C           0.9528722     0.7272712     1.1907401
H           0.2453427     1.5234134     1.4365680
H           1.0246775     0.0455176     2.0473979
H           0.5765344     0.1836115     0.3176831
C           3.6036725    -0.6236130     0.4438581
C           4.9461204    -1.0272342     0.3083004
H           5.1347798    -2.0742039     0.0790973
C           6.0237963    -0.1588890     0.4353236
H           7.0395727    -0.5259483     0.3202960
22
311_C9H12O_9-11-12-13 (-150,) energy =    -425.3920939
C           1.9923099    -1.5075064    -1.3387914
H           2.7889616    -1.5896458    -2.0861460
H           1.5296826    -0.5222791    -1.4619168
H           1.2368169    -2.2709751    -1.5589717
C           2.5612008    -1.6902163     0.0803415
H           3.0270629    -2.6805084     0.1460738
H           1.7419686    -1.7038535     0.8051541
C           5.7579124     1.1841179     0.7104437
H           6.5676845     1.9021835     0.8084496
C           4.4397127     1.6200853     0.7609897
H           4.1972194     2.6684330     0.9054240
C           3.3695698     0.7189990     0.6519287
O           2.1419458     1.3417608     0.6998900
C           0.9918583     0.6938571     1.2220430
H           0.2954830     1.4955638     1.4827867
H           1.2271302     0.1206080     2.1274072
H           0.5088996     0.0390225     0.4889155
C           3.6170965    -0.6535540     0.4269026
C           4.9628617    -1.0609428     0.4038501
H           5.1691630    -2.1171928     0.2435624
C           6.0267912    -0.1756056     0.5475793
H           7.0494677    -0.5406194     0.5179905
22
311_C9H12O_9-11-12-13 (-135,) energy =    -425.3937054
C           1.9550930    -1.4842373    -1.3656914
H           2.7240572    -1.5290159    -2.1445989
H           1.4768174    -0.5016925    -1.4315917
H           1.2022651    -2.2502067    -1.5855223
C           2.5780070    -1.7114351     0.0236462
H           3.0508749    -2.7004753     0.0439676
H           1.7838161    -1.7495889     0.7774259
C           5.7311540     1.1876566     0.7460936
H           6.5287534     1.9138548     0.8779884
C           4.4063104     1.6122755     0.7163092
H           4.1459396     2.6604683     0.8271261
C           3.3599731     0.6952806     0.5583676
O           2.1059098     1.2688670     0.5026171
C           1.0350598     0.7025806     1.2493843
H           0.3578542     1.5284777     1.4857673
H           1.3907467     0.2543335     2.1849875
H           0.4809872    -0.0474461     0.6734852
C           3.6317476    -0.6776678     0.3770261
C           4.9772522    -1.0750243     0.4322123
H           5.2042695    -2.1311241     0.3020896
C           6.0209002    -0.1709620     0.6185226
H           7.0480228    -0.5234978     0.6497132
22
311_C9H12O_9-11-12-13 (-120,) energy =    -425.3945943
C           1.9339299    -1.4985393    -1.4047621
H           2.6856467    -1.5221284    -2.2013714
H           1.4421819    -0.5219885    -1.4398435
H           1.1870214    -2.2716445    -1.6193013
C           2.5893614    -1.7410327    -0.0334549
H           3.0678499    -2.7277615    -0.0340733
H           1.8102744    -1.7918369     0.7369876
C           5.6979886     1.1754353     0.8099432
H           6.4823119     1.9061806     0.9880973
C           4.3698123     1.5880388     0.7274617
H           4.0943056     2.6326396     0.8364709
C           3.3468527     0.6614630     0.5043254
O           2.0747679     1.1924482     0.3853154
C           1.0821826     0.7710285     1.3170963
H           0.3661707     1.5937402     1.3991445
H           1.5186977     0.5752629     2.3041120
H           0.5473441    -0.1229930     0.9747650
C           3.6385657    -0.7065944     0.3272808
C           4.9830964    -1.0930859     0.4294557
H           5.2279990    -2.1452174     0.2998676
C           6.0067245    -0.1773190     0.6706700
H           7.0361198    -0.5183157     0.7381195
22
311_C9H12O_9-11-12-13 (-105,) energy =    -425.3961914
C           2.0791026    -1.5457676    -1.5880370
H           2.9292775    -1.6477489    -2.2715692
H           1.6442995    -0.5522800    -1.7320848
H           1.3279624    -2.2950306    -1.8643723
C           2.5245299    -1.7346705    -0.1261736
H           2.9304808    -2.7454784     0.0028048
H           1.6424616    -1.6767986     0.5207230
C           5.6303707     1.1468734     0.8120846
H           6.4144374     1.8767035     0.9949904
C           4.2984570     1.5561303     0.7511705
H           4.0210905     2.5982148     0.8808097
C           3.2829768     0.6247498     0.5253126
O           1.9883693     1.1086538     0.4090530
C           1.1484407     0.8852685     1.5391748
H           0.1630763     1.2755001     1.2729755
H           1.5243767     1.4225225     2.4209807
H           1.0587834    -0.1780797     1.7907386
C           3.5804475    -0.7323532     0.2958196
C           4.9256359    -1.1176993     0.3728451
H           5.1762662    -2.1631609     0.2050132
C           5.9442178    -0.2001758     0.6342127
H           6.9767195    -0.5351941     0.6830153
22
311_C9H12O_9-11-12-13 (-90,) energy =    -425.3976337
C           2.1098866    -1.6361421    -1.6288792
H           2.9739202    -1.7737161    -2.2886051
H           1.6897937    -0.6441095    -1.8202155
H           1.3557823    -2.3864360    -1.8941813
C           2.5184678    -1.7722877    -0.1508688
H           2.9020842    -2.7838976     0.0303249
H           1.6242481    -1.6617461     0.4728373
C           5.5758518     1.1303956     0.8731738
H           6.3428649     1.8659711     1.1002035
C           4.2373728     1.5175202     0.8069928
H           3.9405517     2.5496043     0.9711167
C           3.2495133     0.5752207     0.5151175
O           1.9341359     1.0002284     0.4029148
C           1.2004453     0.9715801     1.6247228
H           0.1898825     1.3143291     1.3891640
H           1.6456633     1.6415582     2.3730636
H           1.1514113    -0.0413600     2.0464429
C           3.5750998    -0.7681508     0.2593890
C           4.9262012    -1.1314215     0.3334932
H           5.1998865    -2.1667299     0.1405257
C           5.9205102    -0.2014662     0.6407437
H           6.9596477    -0.5152380     0.6905881
22
311_C9H12O_9-11-12-13 (-75,) energy =    -425.3982013
C           2.1118989    -1.6702824    -1.6763970
H           2.9738529    -1.7804318    -2.3441241
H           1.6691735    -0.6851013    -1.8519111
H           1.3719955    -2.4326600    -1.9472377
C           2.5328258    -1.8176167    -0.2032376
H           2.9349973    -2.8246597    -0.0370570
H           1.6418852    -1.7245375     0.4283504
C           5.5149631     1.1231855     0.9232941
H           6.2603888     1.8682460     1.1882867
C           4.1676000     1.4781489     0.8637386
H           3.8497304     2.4970254     1.0670251
C           3.2073262     0.5236848     0.5201338
O           1.8756211     0.8911069     0.4132681
C           1.2119130     1.1001417     1.6569498
H           0.1854123     1.3873533     1.4165074
H           1.6838722     1.9027213     2.2391982
H           1.2019800     0.1842719     2.2637631
C           3.5705369    -0.7998821     0.2188521
C           4.9308591    -1.1293335     0.2811315
H           5.2323892    -2.1493417     0.0517852
C           5.8979542    -0.1869591     0.6329533
H           6.9450917    -0.4738977     0.6758828
22
311_C9H12O_9-11-12-13 (-60,) energy =    -425.3986585
C           2.1155523    -1.6891300    -1.7015460
H           2.9674445    -1.7505106    -2.3883149
H           1.6432116    -0.7107485    -1.8325838
H           1.3913086    -2.4607297    -1.9882612
C           2.5676227    -1.8803852    -0.2426843
H           3.0000143    -2.8815213    -0.1231676
H           1.6869486    -1.8328025     0.4078702
C           5.4836886     1.0875532     0.9733626
H           6.2112481     1.8404911     1.2646470
C           4.1271704     1.4104782     0.9435980
H           3.7954524     2.4131651     1.1970936
C           3.1865654     0.4465234     0.5699644
O           1.8426112     0.7574437     0.4782606
C           1.2238388     1.2218944     1.6739488
H           0.1635357     1.3461875     1.4414393
H           1.6293758     2.1873921     2.0029476
H           1.3372057     0.4941417     2.4883854
C           3.5838716    -0.8518383     0.2033104
C           4.9525233    -1.1464174     0.2350920
H           5.2773122    -2.1473505    -0.0416188
C           5.8994156    -0.1961155     0.6192407
H           6.9540411    -0.4565690     0.6395784
22
311_C9H12O_9-11-12-13 (-45,) energy =    -425.3997464
C           2.1055678    -1.6902666    -1.7158298
H           2.9442514    -1.7006210    -2.4213047
H           1.6063795    -0.7197503    -1.7960289
H           1.3947648    -2.4671665    -2.0213406
C           2.5927204    -1.9324632    -0.2757361
H           3.0539442    -2.9256774    -0.2099583
H           1.7252451    -1.9363009     0.3940296
C           5.4519458     1.0515869     1.0264815
H           6.1634508     1.8098842     1.3426051
C           4.0869737     1.3428766     1.0316825
H           3.7411717     2.3234936     1.3437298
C           3.1637351     0.3719184     0.6323241
O           1.8120204     0.6297295     0.5645326
C           1.2272350     1.3286850     1.6571265
H           0.1459592     1.2157603     1.5478173
H           1.4702348     2.3995143     1.6411964
H           1.5465472     0.9044063     2.6173129
C           3.5901198    -0.8980986     0.1976517
C           4.9645160    -1.1580384     0.1972819
H           5.3085526    -2.1379756    -0.1272285
C           5.8953243    -0.2020767     0.6088956
H           6.9560844    -0.4367069     0.6031941
22
311_C9H12O_9-11-12-13 (-30,) energy =    -425.4012878
C           2.0889321    -1.6935598    -1.7141916
H           2.9083458    -1.6519124    -2.4408222
H           1.5612579    -0.7353355    -1.7421655
H           1.3915617    -2.4773232    -2.0328524
C           2.6211841    -1.9803299    -0.2983048
H           3.1133041    -2.9607186    -0.2871350
H           1.7725765    -2.0394789     0.3929381
C           5.4244793     1.0262978     1.0674367
H           6.1202560     1.7909247     1.4028078
C           4.0518861     1.2818670     1.1103360
H           3.6923112     2.2393492     1.4725135
C           3.1470317     0.3033273     0.6875294
O           1.7880235     0.5042554     0.6601836
C           1.2286740     1.3969252     1.6130172
H           0.1502083     1.2243783     1.5939051
H           1.4216510     2.4469553     1.3548226
H           1.6160104     1.1990052     2.6204889
C           3.6003323    -0.9378574     0.1950680
C           4.9793097    -1.1602858     0.1621603
H           5.3414091    -2.1182295    -0.2055138
C           5.8939500    -0.1961636     0.5936485
H           6.9601261    -0.4017657     0.5602901
22
311_C9H12O_9-11-12-13 (-15,) energy =    -425.4024299
C           2.0661285    -1.6803209    -1.6950803
H           2.8630741    -1.5903890    -2.4420121
H           1.5145674    -0.7355288    -1.6715315
H           1.3789882    -2.4687076    -2.0243994
C           2.6456879    -2.0073699    -0.3067050
H           3.1612644    -2.9747856    -0.3476142
H           1.8192399    -2.1152551     0.4052749
C           5.4151793     1.0078890     1.1051282
H           6.1021443     1.7737033     1.4556911
C           4.0379017     1.2308470     1.1931703
H           3.6725059     2.1642680     1.6067782
C           3.1444175     0.2517907     0.7481679
O           1.7809794     0.4008654     0.7767483
C           1.2345405     1.4458142     1.5643336
H           0.1534788     1.2918964     1.5602504
H           1.4554629     2.4347411     1.1403892
H           1.6063704     1.4072205     2.5965803
C           3.6143315    -0.9611509     0.1999054
C           4.9952583    -1.1509912     0.1270691
H           5.3684417    -2.0860261    -0.2857397
C           5.8999993    -0.1827684     0.5727270
H           6.9692038    -0.3623612     0.5054198
22
311_C9H12O_9-11-12-13 (0,) energy =    -425.4027857
C           2.0352103    -1.6627900    -1.6670113
H           2.8062607    -1.5277638    -2.4340430
H           1.4645070    -0.7322199    -1.5914741
H           1.3548890    -2.4536553    -2.0043982
C           2.6646517    -2.0274661    -0.3101687
H           3.1999545    -2.9803938    -0.4034572
H           1.8636567    -2.1821973     0.4219847
C           5.4124993     0.9904572     1.1364547
H           6.0935140     1.7556929     1.4996753
C           4.0337839     1.1828259     1.2696667
H           3.6643409     2.0909093     1.7324315
C           3.1474093     0.2064905     0.8050512
O           1.7830796     0.3103012     0.8964606
C           1.2325368     1.4708229     1.4949266
H           0.1491707     1.3391421     1.4633776
H           1.5031507     2.3794970     0.9406396
H           1.5536186     1.5790705     2.5395782
C           3.6263264    -0.9791290     0.2059820
C           5.0077345    -1.1396155     0.0925448
H           5.3870295    -2.0520473    -0.3630468
C           5.9059253    -0.1696013     0.5484162
H           6.9761571    -0.3248647     0.4462199
22
311_C9H12O_9-11-12-13 (15,) energy =    -425.4024299
C           2.3642596    -2.7419409    -0.2957994
H           2.0218201    -2.5521304     0.7260193
H           3.3296065    -3.2578723    -0.2406866
H           1.6456580    -3.4158462    -0.7770787
C           2.4871525    -1.4242719    -1.0826172
H           1.4994796    -0.9521034    -1.1385634
H           2.7956478    -1.6440233    -2.1121442
C           5.3296596     1.3235172     0.6851354
H           6.0381480     2.0106678     1.1402782
C           4.0482472     1.2001674     1.2302246
H           3.7781834     1.7883071     2.1002923
C           3.1272507     0.3216536     0.6515438
O           1.8599018     0.1237744     1.1380355
C           1.3432868     1.0588937     2.0704865
H           0.2920298     0.7973952     2.2078869
H           1.4189042     2.0867698     1.6922895
H           1.8562341     0.9947936     3.0396554
C           3.4763584    -0.4536776    -0.4752320
C           4.7637592    -0.3056953    -0.9938881
H           5.0406617    -0.8920274    -1.8676770
C           5.6931053     0.5724784    -0.4284241
H           6.6863420     0.6673090    -0.8579240
22
311_C9H12O_9-11-12-13 (30,) energy =    -425.4012878
C           2.3881944    -2.7592112    -0.3095608
H           2.0843690    -2.6089903     0.7308912
H           3.3600420    -3.2658441    -0.3103012
H           1.6580547    -3.4238022    -0.7863941
C           2.4671005    -1.4133242    -1.0529493
H           1.4734202    -0.9506693    -1.0525958
H           2.7373339    -1.5927465    -2.1009238
C           5.3518606     1.2954574     0.7089216
H           6.0723979     1.9697772     1.1642810
C           4.0930063     1.1403182     1.2940587
H           3.8465347     1.6885087     2.1973737
C           3.1555901     0.2804899     0.7135300
O           1.9171342     0.0463072     1.2607128
C           1.3154990     1.0890025     2.0146656
H           0.2669526     0.8085024     2.1375314
H           1.3809900     2.0501536     1.4892128
H           1.7709054     1.1923875     3.0088409
C           3.4689464    -0.4541474    -0.4486470
C           4.7377350    -0.2787106    -1.0067984
H           4.9879327    -0.8316832    -1.9098924
C           5.6793204     0.5869512    -0.4443689
H           6.6557690     0.7053513    -0.9055043
22
311_C9H12O_9-11-12-13 (45,) energy =    -425.3997464
C           2.4049938    -2.7565085    -0.3104032
H           2.1440910    -2.6459635     0.7465890
H           3.3793678    -3.2547591    -0.3698511
H           1.6600789    -3.4094284    -0.7804552
C           2.4437010    -1.3838055    -1.0061296
H           1.4486070    -0.9287868    -0.9439989
H           2.6680087    -1.5219522    -2.0710852
C           5.3934367     1.2699281     0.7352073
H           6.1326092     1.9274788     1.1851404
C           4.1585915     1.0914550     1.3607719
H           3.9427106     1.6022070     2.2940942
C           3.1991816     0.2521707     0.7865318
O           1.9892875    -0.0017940     1.3946872
C           1.2892951     1.1100443     1.9406730
H           0.2732298     0.7620157     2.1415351
H           1.2583935     1.9473698     1.2322506
H           1.7330868     1.4560733     2.8836953
C           3.4664114    -0.4421123    -0.4093980
C           4.7150557    -0.2480964    -1.0092139
H           4.9326402    -0.7706602    -1.9384767
C           5.6754971     0.5997603    -0.4538901
H           6.6339441     0.7344885    -0.9473713
22
311_C9H12O_9-11-12-13 (60,) energy =    -425.3986585
C           2.4109449    -2.7408456    -0.3153297
H           2.1901850    -2.6702965     0.7541538
H           3.3829433    -3.2339116    -0.4304138
H           1.6494755    -3.3772714    -0.7814061
C           2.4215856    -1.3425839    -0.9587380
H           1.4290850    -0.8931055    -0.8404840
H           2.6031084    -1.4384276    -2.0364131
C           5.4443094     1.2369796     0.7732737
H           6.2040686     1.8728761     1.2199352
C           4.2327497     1.0366982     1.4345742
H           4.0497359     1.5018790     2.3988307
C           3.2516040     0.2201203     0.8652746
O           2.0656745    -0.0391658     1.5268152
C           1.2607783     1.0938923     1.8375973
H           0.3430661     0.7040617     2.2843508
H           1.0135774     1.6655717     0.9332428
H           1.7479171     1.7638836     2.5578012
C           3.4680982    -0.4245178    -0.3658233
C           4.6961622    -0.2116731    -1.0042206
H           4.8790058    -0.6994296    -1.9595140
C           5.6778426     0.6119898    -0.4518329
H           6.6186572     0.7623279    -0.9740884
22
311_C9H12O_9-11-12-13 (75,) energy =    -425.3982013
C           2.4046447    -2.7125164    -0.3027246
H           2.2247838    -2.6757752     0.7760215
H           3.3716461    -3.2000449    -0.4705976
H           1.6260483    -3.3344695    -0.7598826
C           2.3907313    -1.2941577    -0.9003452
H           1.4023731    -0.8511435    -0.7323300
H           2.5303898    -1.3540042    -1.9868108
C           5.4938827     1.2066941     0.8104234
H           6.2758273     1.8191960     1.2513315
C           4.3050041     0.9897031     1.5064237
H           4.1513117     1.4153543     2.4941867
C           3.2993139     0.2001339     0.9439653
O           2.1399829    -0.0544090     1.6588204
C           1.2300579     1.0400349     1.7307779
H           0.3783049     0.6970696     2.3231448
H           0.8833798     1.3381443     0.7317365
H           1.6822242     1.9124575     2.2209995
C           3.4616337    -0.3974033    -0.3174325
C           4.6670575    -0.1678535    -0.9935642
H           4.8118546    -0.6214381    -1.9719464
C           5.6746913     0.6272121    -0.4461465
H           6.5973610     0.7894748    -0.9966238
22
311_C9H12O_9-11-12-13 (90,) energy =    -425.3976337
C           2.3970749    -2.6585249    -0.2816328
H           2.2441359    -2.6302254     0.8014301
H           3.3585572    -3.1461976    -0.4777154
H           1.6059352    -3.2744960    -0.7251176
C           2.3724267    -1.2347387    -0.8666148
H           1.3864492    -0.7946447    -0.6794760
H           2.4897287    -1.2854406    -1.9561176
C           5.5658862     1.1739091     0.8133240
H           6.3762395     1.7523923     1.2487631
C           4.3934347     0.9618710     1.5387016
H           4.2723946     1.3588918     2.5426747
C           3.3506096     0.2188125     0.9824988
O           2.2193870    -0.0206339     1.7482997
C           1.2024007     0.9700691     1.6210887
H           0.3754122     0.6512009     2.2603197
H           0.8477065     1.0586845     0.5854057
H           1.5601819     1.9539488     1.9543688
C           3.4616413    -0.3493384    -0.2984922
C           4.6486289    -0.1204094    -1.0067141
H           4.7546753    -0.5499081    -2.0008424
C           5.6911298     0.6347039    -0.4673917
H           6.5991714     0.7940099    -1.0425659
22
311_C9H12O_9-11-12-13 (105,) energy =    -425.3961914
C           2.3750644    -2.5998671    -0.1986960
H           2.1961376    -2.5296923     0.8782823
H           3.3366393    -3.1021155    -0.3521048
H           1.5898437    -3.2253366    -0.6393594
C           2.3791083    -1.1994146    -0.8388917
H           1.3882575    -0.7506236    -0.7097777
H           2.5312790    -1.2944323    -1.9210101
C           5.6365515     1.1322504     0.8291240
H           6.4733868     1.6710806     1.2652847
C           4.4732727     0.9329041     1.5722523
H           4.3815690     1.3043887     2.5887505
C           3.3892971     0.2494160     1.0177047
O           2.2903127     0.0274424     1.8341904
C           1.1585386     0.8544973     1.5741445
H           0.3725701     0.5256485     2.2583944
H           0.7999379     0.7613360     0.5422730
H           1.3900239     1.9107831     1.7696605
C           3.4642263    -0.3036783    -0.2751052
C           4.6405542    -0.0796509    -1.0031310
H           4.7162471    -0.4931246    -2.0067663
C           5.7155138     0.6336264    -0.4708065
H           6.6133968     0.7844464    -1.0638819
22
311_C9H12O_9-11-12-13 (120,) energy =    -425.3945943
C           2.1994098    -2.4430987    -0.1604333
H           1.9349834    -2.2871030     0.8895393
H           3.1126576    -3.0476141    -0.1880114
H           1.3974534    -3.0168776    -0.6392179
C           2.4150582    -1.1017519    -0.8837317
H           1.4681541    -0.5488626    -0.9124565
H           2.6742330    -1.2967419    -1.9312968
C           5.7066363     1.1519043     0.8388306
H           6.5451265     1.6866075     1.2769142
C           4.5531535     0.9340849     1.5892498
H           4.4690609     1.2873630     2.6125292
C           3.4623434     0.2530754     1.0404883
O           2.3945961     0.0467233     1.8958496
C           1.1312367     0.6002208     1.5372423
H           0.5941625     0.7767237     2.4735422
H           0.5393206    -0.0867901     0.9206642
H           1.2489685     1.5525341     1.0059155
C           3.5160493    -0.2552701    -0.2735598
C           4.6849930    -0.0081681    -1.0084673
H           4.7440238    -0.3889274    -2.0259587
C           5.7696158     0.6867298    -0.4742973
H           6.6585429     0.8526435    -1.0765964
22
311_C9H12O_9-11-12-13 (135,) energy =    -425.3937054
C           2.2120640    -2.3981911    -0.1618302
H           1.9695686    -2.2666344     0.8975912
H           3.1328639    -2.9889432    -0.2179330
H           1.4072832    -2.9760001    -0.6311374
C           2.3952730    -1.0418940    -0.8666649
H           1.4408993    -0.5038712    -0.8756619
H           2.6432324    -1.2190684    -1.9199185
C           5.7569931     1.1022470     0.8568490
H           6.6191741     1.5949399     1.2982361
C           4.5953166     0.9379153     1.6051149
H           4.5257726     1.2969146     2.6273991
C           3.4673275     0.3161217     1.0558787
O           2.4085235     0.1849756     1.9313895
C           1.0908740     0.5075742     1.5015164
H           0.5509917     0.8370785     2.3940096
H           0.5697200    -0.3596951     1.0802814
H           1.0960630     1.3220407     0.7670714
C           3.5023356    -0.2015992    -0.2565516
C           4.6822863    -0.0014588    -0.9907046
H           4.7237637    -0.3873987    -2.0071422
C           5.7978220     0.6425724    -0.4596251
H           6.6917644     0.7707304    -1.0635105
22
311_C9H12O_9-11-12-13 (150,) energy =    -425.3920939
C           2.2357017    -2.3725000    -0.1996698
H           2.0234040    -2.2906340     0.8718172
H           3.1671540    -2.9392015    -0.3054311
H           1.4289832    -2.9504294    -0.6658633
C           2.3688051    -0.9859375    -0.8559365
H           1.4030911    -0.4727808    -0.8285989
H           2.5980905    -1.1223586    -1.9193481
C           5.7908657     1.0731150     0.8550842
H           6.6717711     1.5341101     1.2937675
C           4.6168073     0.9885833     1.5931318
H           4.5554533     1.3826041     2.6029239
C           3.4567213     0.4125026     1.0533281
O           2.4055871     0.3979928     1.9433280
C           1.0554209     0.4709341     1.5110604
H           0.4863365     0.8123895     2.3800889
H           0.6610444    -0.5016494     1.1978800
H           0.9301187     1.1968614     0.6980533
C           3.4802438    -0.1507528    -0.2420476
C           4.6788186    -0.0267121    -0.9670394
H           4.7085258    -0.4449997    -1.9710659
C           5.8209290     0.5759847    -0.4486130
H           6.7240264     0.6427410    -1.0485600
22
311_C9H12O_9-11-12-13 (165,) energy =    -425.3904209
C           2.2546977    -2.3712050    -0.2945711
H           2.0624614    -2.3757112     0.7843236
H           3.1949424    -2.9088204    -0.4592131
H           1.4502579    -2.9308729    -0.7866626
C           2.3454307    -0.9369170    -0.8479935
H           1.3742196    -0.4465170    -0.7574656
H           2.5433221    -0.9939112    -1.9250944
C           5.8085919     1.0719363     0.8561397
H           6.6963899     1.5294618     1.2844693
C           4.6157721     1.0876514     1.5641223
H           4.5470559     1.5566863     2.5407999
C           3.4414199     0.5162639     1.0427624
O           2.3889794     0.6413327     1.9189355
C           1.0332489     0.4437421     1.5599008
H           0.4564066     0.7674185     2.4301641
H           0.7978554    -0.6063083     1.3564102
H           0.7447833     1.0602003     0.6993350
C           3.4690112    -0.1287719    -0.2145741
C           4.6944388    -0.1095696    -0.9084114
H           4.7272021    -0.5931090    -1.8827768
C           5.8505600     0.4752293    -0.4054829
H           6.7689459     0.4600723    -0.9852266
22
311_C9H12O_9-11-12-13 (180,) energy =    -425.3894882
C           2.0554616    -1.6931663    -1.2846834
H           2.8950164    -1.8625008    -1.9680053
H           1.5870453    -0.7458600    -1.5754408
H           1.3241309    -2.4957378    -1.4379459
C           2.5404446    -1.6635096     0.1764910
H           2.9901765    -2.6370071     0.4076845
H           1.6849239    -1.5757297     0.8469633
C           5.7853164     1.1904960     0.7250708
H           6.6097008     1.8890784     0.8405064
C           4.4893261     1.6068814     0.9861805
H           4.2785093     2.6222842     1.3071812
C           3.3905581     0.7366167     0.8542491
O           2.2160078     1.3769844     1.1693607
C           0.9337881     0.7792729     1.1367530
H           0.2338570     1.5941419     1.3392458
H           0.8143434     0.0174293     1.9169718
H           0.6950720     0.3468591     0.1591498
C           3.5973150    -0.5980557     0.4391881
C           4.9297723    -0.9822569     0.1873862
H           5.1021936    -2.0102454    -0.1260056
C           6.0153527    -0.1264733     0.3200865
H           7.0216550    -0.4806987     0.1160594
