31
328_C14H14N2O_8-0-26-24 (-165,) energy =    -726.6723031
N           2.6880208    -1.0129379     0.0736443
H           3.0995439    -1.9457209     0.0602073
C           5.5571387     2.0829575     0.0074658
H           6.3073041     2.8680021    -0.0119164
C           4.3793464     2.2383871     0.7396353
H           4.2080565     3.1448309     1.3145243
C           3.4228450     1.2276879     0.7604626
H           2.5309657     1.3395674     1.3669138
C           3.6111946     0.0362558     0.0355065
C           4.8029525    -0.1212742    -0.7168489
C           5.0364984    -1.3620662    -1.5625548
H           4.1174750    -1.6196627    -2.1030354
H           5.8118912    -1.1550249    -2.3078747
C           5.7555928     0.9017961    -0.7058755
H           6.6640070     0.7767666    -1.2923685
C           5.4050254    -2.5937282    -0.7323829
O           4.5804416    -3.1858625    -0.0371615
N           6.6999074    -3.0035364    -0.8096875
H           6.9986698    -3.7530611    -0.2003195
H           7.4058216    -2.4623725    -1.2845391
C          -1.5175477    -1.0053684     0.4142644
H          -2.6002332    -1.0215990     0.4984273
C          -0.7681937    -2.1628359     0.6410622
H          -1.2668218    -3.0931177     0.9018332
C           0.6190452    -2.1419343     0.5421083
H           1.1941316    -3.0463506     0.7267500
C           1.3000472    -0.9539144     0.2097185
C           0.5406272     0.2040648    -0.0403848
H           1.0329667     1.1207856    -0.3447534
C          -0.8489996     0.1700401     0.0703456
H          -1.4135829     1.0779624    -0.1279925
31
328_C14H14N2O_8-0-26-24 (-150,) energy =    -726.6727318
N           2.6608422    -1.0150252    -0.1353585
H           3.0719967    -1.9486251    -0.1249194
C           5.5578836     2.0480140     0.1147347
H           6.3144843     2.8249560     0.1719930
C           4.3359969     2.1901923     0.7732544
H           4.1345849     3.0782989     1.3668331
C           3.3692518     1.1918748     0.6946079
H           2.4376526     1.2982834     1.2389906
C           3.5948309     0.0235071    -0.0560846
C           4.8321958    -0.1206121    -0.7344441
C           5.1077849    -1.3368856    -1.6025667
H           4.2198107    -1.5705248    -2.2028261
H           5.9274888    -1.1148814    -2.2942724
C           5.7907718     0.8905140    -0.6268710
H           6.7341294     0.7748884    -1.1575471
C           5.4186017    -2.5937570    -0.7872314
O           4.5517526    -3.1949601    -0.1536115
N           6.7121419    -3.0150010    -0.8035750
H           6.9701819    -3.7833379    -0.1990870
H           7.4479043    -2.4695298    -1.2251435
C          -1.5044938    -0.9805933     0.5324961
H          -2.5779564    -0.9881774     0.6977816
C          -0.7368596    -2.1160322     0.8019097
H          -1.2111413    -3.0182259     1.1800949
C           0.6407096    -2.1055714     0.6016538
H           1.2341987    -2.9890416     0.8247344
C           1.2854530    -0.9541988     0.1126614
C           0.5062021     0.1808631    -0.1769495
H           0.9761517     1.0657338    -0.5928995
C          -0.8702116     0.1622223     0.0417169
H          -1.4530250     1.0506297    -0.1891774
31
328_C14H14N2O_8-0-26-24 (-135,) energy =    -726.6724331
N           2.6273433    -0.9995754    -0.3172838
H           3.0360018    -1.9347008    -0.2957855
C           5.5388870     2.0142152     0.2317920
H           6.2984721     2.7792087     0.3628705
C           4.2804682     2.1477441     0.8189641
H           4.0517654     3.0177712     1.4292684
C           3.3092382     1.1653471     0.6458860
H           2.3444057     1.2683732     1.1297224
C           3.5696235     0.0208307    -0.1285445
C           4.8435341    -0.1132082    -0.7377336
C           5.1574420    -1.3019618    -1.6305307
H           4.3017284    -1.5066491    -2.2858975
H           6.0158562    -1.0651308    -2.2683066
C           5.8039248     0.8814634    -0.5370718
H           6.7761048     0.7730661    -1.0147414
C           5.4122885    -2.5871869    -0.8407891
O           4.5092032    -3.1952805    -0.2670626
N           6.6996722    -3.0267702    -0.8101550
H           6.9173725    -3.8159803    -0.2168066
H           7.4621396    -2.4782766    -1.1768061
C          -1.4849786    -0.9466199     0.6333265
H          -2.5454063    -0.9455846     0.8688030
C          -0.6866280    -2.0421288     0.9677104
H          -1.1228640    -2.9019404     1.4699425
C           0.6764478    -2.0402103     0.6780947
H           1.2975792    -2.8884354     0.9552711
C           1.2656886    -0.9450156     0.0239924
C           0.4554160     0.1495448    -0.3249362
H           0.8925959     0.9894080    -0.8558420
C          -0.9024381     0.1467966    -0.0118896
H          -1.5128078     1.0023646    -0.2902380
31
328_C14H14N2O_8-0-26-24 (-120,) energy =    -726.6714244
N           2.5955660    -0.9718346    -0.4930215
H           2.9966275    -1.9111217    -0.4898860
C           5.5239575     1.9625645     0.3434472
H           6.2868229     2.7086715     0.5452855
C           4.2377594     2.0944559     0.8664771
H           3.9882561     2.9451132     1.4957292
C           3.2624004     1.1360012     0.6027486
H           2.2726040     1.2404545     1.0329941
C           3.5480505     0.0170591    -0.1986394
C           4.8503250    -0.1138480    -0.7452882
C           5.1940570    -1.2727655    -1.6661766
H           4.3728795    -1.4371779    -2.3749535
H           6.0900598    -1.0272058    -2.2463629
C           5.8125342     0.8563892    -0.4555146
H           6.8070689     0.7502440    -0.8854372
C           5.3851505    -2.5903291    -0.9129871
O           4.4417560    -3.2060785    -0.4175350
N           6.6630857    -3.0497055    -0.8227005
H           6.8355810    -3.8613331    -0.2448957
H           7.4525292    -2.4958939    -1.1172894
C          -1.4493925    -0.9201671     0.7233065
H          -2.4926050    -0.9159913     1.0265493
C          -0.6027881    -1.9557447     1.1222940
H          -0.9831844    -2.7623785     1.7438426
C           0.7398688    -1.9562473     0.7447608
H           1.4034969    -2.7529602     1.0712733
C           1.2492120    -0.9314823    -0.0671705
C           0.3922436     0.1034758    -0.4746836
H           0.7787413     0.8891312    -1.1171741
C          -0.9420151     0.1102292    -0.0725302
H          -1.5932577     0.9178148    -0.3972991
31
328_C14H14N2O_8-0-26-24 (-105,) energy =    -726.6699559
N           2.5784658    -0.9305892    -0.6445390
H           2.9708737    -1.8733104    -0.6815430
C           5.5186366     1.9061515     0.4541426
H           6.2829035     2.6300223     0.7211552
C           4.2125168     2.0379510     0.9245909
H           3.9471100     2.8670948     1.5757290
C           3.2354417     1.1077293     0.5777266
H           2.2274264     1.2134091     0.9632670
C           3.5402907     0.0175694    -0.2552050
C           4.8632019    -0.1115748    -0.7501925
C           5.2300808    -1.2368907    -1.7035815
H           4.4422731    -1.3552317    -2.4579858
H           6.1576367    -0.9849282    -2.2288184
C           5.8255749     0.8299238    -0.3785580
H           6.8364067     0.7253167    -0.7692532
C           5.3612972    -2.5875126    -0.9981066
O           4.3832204    -3.2090389    -0.5838823
N           6.6263943    -3.0691084    -0.8543405
H           6.7556265    -3.9043561    -0.2993121
H           7.4376801    -2.5124365    -1.0750776
C          -1.3992541    -0.8997737     0.7887173
H          -2.4245599    -0.8977384     1.1483521
C          -0.4891850    -1.8451047     1.2647961
H          -0.8019396    -2.5802372     2.0019108
C           0.8310427    -1.8421588     0.8128187
H           1.5476539    -2.5653658     1.1934760
C           1.2462362    -0.9114833    -0.1496516
C           0.3283629     0.0339017    -0.6285407
H           0.6524874     0.7477698    -1.3802896
C          -0.9828682     0.0429682    -0.1547685
H          -1.6859464     0.7793500    -0.5355754
31
328_C14H14N2O_8-0-26-24 (-90,) energy =    -726.6683822
N           2.5630391    -0.8664709    -0.7278543
H           2.9445101    -1.8100144    -0.8225949
C           5.5153783     1.8671078     0.5801209
H           6.2818508     2.5664502     0.9007826
C           4.1969551     2.0012128     1.0139153
H           3.9229510     2.8089817     1.6880063
C           3.2176304     1.1017846     0.5987630
H           2.1983441     1.2107937     0.9526924
C           3.5325306     0.0394334    -0.2664028
C           4.8680454    -0.0887385    -0.7273336
C           5.2478650    -1.1755824    -1.7197326
H           4.4864718    -1.2428589    -2.5068523
H           6.1982677    -0.9181153    -2.1995990
C           5.8315121     0.8218507    -0.2880158
H           6.8521150     0.7179138    -0.6528076
C           5.3286014    -2.5594488    -1.0745117
O           4.3242964    -3.1862453    -0.7386278
N           6.5798107    -3.0644234    -0.8919584
H           6.6714514    -3.9239216    -0.3672761
H           7.4064885    -2.5064471    -1.0409046
C          -1.3709013    -0.8731358     0.8341870
H          -2.3840996    -0.8786793     1.2269942
C          -0.3878794    -1.6745484     1.4183570
H          -0.6328143    -2.3034756     2.2703790
C           0.9156415    -1.6627422     0.9201061
H           1.6890133    -2.2752116     1.3760607
C           1.2396824    -0.8689030    -0.1880977
C           0.2516817    -0.0661833    -0.7701722
H           0.5135531     0.5436029    -1.6299134
C          -1.0461862    -0.0652922    -0.2578750
H          -1.8071296     0.5585597    -0.7196036
31
328_C14H14N2O_8-0-26-24 (-75,) energy =    -726.6670660
N           2.5401391    -0.8185302    -0.7639895
H           2.9011275    -1.7559676    -0.9534646
C           5.5384474     1.7843383     0.6941591
H           6.3160956     2.4513325     1.0543033
C           4.2175595     1.9290582     1.1169687
H           3.9516352     2.7150387     1.8194983
C           3.2242156     1.0708994     0.6514553
H           2.2020212     1.1919997     0.9928123
C           3.5263543     0.0363675    -0.2525022
C           4.8644216    -0.0972351    -0.7068976
C           5.2334511    -1.1380150    -1.7518298
H           4.4894306    -1.1375875    -2.5582041
H           6.2016429    -0.8826024    -2.1958405
C           5.8412302     0.7727854    -0.2175125
H           6.8629007     0.6647918    -0.5783060
C           5.2602465    -2.5586330    -1.1876833
O           4.2305979    -3.1853267    -0.9410254
N           6.4934157    -3.0961996    -0.9739704
H           6.5441647    -3.9814055    -0.4877204
H           7.3318695    -2.5387528    -1.0333242
C          -1.3758837    -0.9140981     0.8499567
H          -2.3845049    -0.9436348     1.2535748
C          -0.3231651    -1.5099466     1.5486056
H          -0.5108567    -2.0042701     2.4982619
C           0.9723640    -1.4707127     1.0321956
H           1.7973038    -1.9299761     1.5699618
C           1.2227893    -0.8465515    -0.1973008
C           0.1669274    -0.2470814    -0.8906746
H           0.3755399     0.2348530    -1.8411580
C          -1.1278002    -0.2810223    -0.3691221
H          -1.9428933     0.1833134    -0.9180149
31
328_C14H14N2O_8-0-26-24 (-60,) energy =    -726.6664796
N           2.5615443    -0.7300452    -0.7322402
H           2.8851283    -1.6273400    -1.0967073
C           5.6415777     1.7291404     0.7943184
H           6.4401236     2.3583314     1.1758519
C           4.3279410     1.8907589     1.2343961
H           4.0879294     2.6549943     1.9695147
C           3.3076941     1.0818260     0.7421414
H           2.2913903     1.2237054     1.0924856
C           3.5720964     0.0738360    -0.2054297
C           4.9025784    -0.0686022    -0.6841535
C           5.2361220    -1.0531828    -1.7939122
H           4.5113902    -0.9589431    -2.6121718
H           6.2247343    -0.8168943    -2.2021208
C           5.9062808     0.7542014    -0.1670478
H           6.9197890     0.6396362    -0.5484177
C           5.1833136    -2.5117261    -1.3389740
O           4.1237268    -3.1297706    -1.2471513
N           6.3801167    -3.0900013    -1.0405793
H           6.3647542    -4.0040889    -0.6083395
H           7.2245677    -2.5436362    -0.9623601
C          -1.3777727    -0.9832308     0.8026800
H          -2.3926995    -1.0598518     1.1835172
C          -0.2932774    -1.2855021     1.6300646
H          -0.4628117    -1.6037699     2.6554729
C           1.0097558    -1.1939136     1.1414901
H           1.8556651    -1.4406886     1.7766183
C           1.2418345    -0.7865746    -0.1801443
C           0.1526537    -0.4814239    -1.0027856
H           0.3441099    -0.1661310    -2.0241693
C          -1.1516398    -0.5847553    -0.5153762
H          -1.9901137    -0.3492911    -1.1655753
31
328_C14H14N2O_8-0-26-24 (-45,) energy =    -726.6669988
N           2.6270041    -0.6629601    -0.5975648
H           2.8675684    -1.3583308    -1.2985483
C           5.7979514     1.7010625     0.8847579
H           6.6221835     2.2984115     1.2624244
C           4.5077057     1.8538227     1.3918483
H           4.3092824     2.5841203     2.1723413
C           3.4550034     1.0851536     0.9055150
H           2.4571134     1.2369910     1.2992999
C           3.6602976     0.1210246    -0.1025713
C           4.9655774    -0.0045467    -0.6556891
C           5.2407721    -0.9124887    -1.8432451
H           4.5663035    -0.6776544    -2.6759259
H           6.2627334    -0.7351344    -2.1958707
C           6.0015609     0.7810568    -0.1426780
H           6.9925098     0.6809362    -0.5825164
C           5.0468989    -2.4033140    -1.5539624
O           3.9914511    -2.9812603    -1.7997232
N           6.1217823    -3.0470113    -1.0148548
H           5.9724395    -3.9835749    -0.6631853
H           6.8933476    -2.5226789    -0.6282301
C          -1.3521984    -1.1038394     0.7557455
H          -2.3780031    -1.2302183     1.0903322
C          -0.3100514    -1.0453250     1.6832313
H          -0.5206469    -1.1401876     2.7454804
C           1.0096778    -0.8923433     1.2602070
H           1.8169694    -0.8907875     1.9851773
C           1.3043888    -0.7636990    -0.1070191
C           0.2535028    -0.8282790    -1.0347355
H           0.4798124    -0.7336235    -2.0933640
C          -1.0607976    -1.0058006    -0.6060424
H          -1.8605450    -1.0554796    -1.3404092
31
328_C14H14N2O_8-0-26-24 (-30,) energy =    -726.6680414
N           2.8818061    -1.4110965     0.4937075
H           3.1750650    -2.1953456    -0.0884759
C           5.8723843     1.5673747     0.7646454
H           6.6509852     2.3215852     0.8347482
C           5.0267371     1.3168969     1.8454154
H           5.1475768     1.8661843     2.7752719
C           4.0398070     0.3389035     1.7457571
H           3.4180374     0.0997868     2.6022844
C           3.8579986    -0.3905585     0.5601740
C           4.7054241    -0.1292862    -0.5419291
C           4.5168810    -0.8464073    -1.8694020
H           3.4512743    -0.8868896    -2.1224044
H           5.0196311    -0.2815015    -2.6616189
C           5.7081778     0.8382384    -0.4122444
H           6.3561056     1.0423047    -1.2626070
C           5.0098190    -2.2962069    -1.8483868
O           4.4001630    -3.1868013    -1.2597809
N           6.1626862    -2.5447225    -2.5264490
H           6.5646605    -3.4701043    -2.4599713
H           6.7222806    -1.8064209    -2.9243804
C          -1.3265508    -0.9935098     0.5154073
H          -2.4093188    -0.9089449     0.5254229
C          -0.5317230    -0.0240223     1.1275742
H          -0.9960699     0.8270752     1.6200884
C           0.8593478    -0.1265461     1.1304295
H           1.4512905     0.6454163     1.6084964
C           1.4911503    -1.2071822     0.4912751
C           0.6846126    -2.1842601    -0.1249417
H           1.1616656    -3.0289467    -0.6171356
C          -0.7024344    -2.0763676    -0.1089799
H          -1.2991424    -2.8444834    -0.5950260
31
328_C14H14N2O_8-0-26-24 (-15,) energy =    -726.6697511
N           2.8306730    -1.3453011     0.3012517
H           3.1182797    -2.1251098    -0.2892163
C           5.8972750     1.5107033     0.8401398
H           6.6971946     2.2326111     0.9769866
C           4.9729932     1.2706362     1.8575597
H           5.0536186     1.7948777     2.8061323
C           3.9572872     0.3363689     1.6739262
H           3.2738867     0.1084762     2.4849674
C           3.8245887    -0.3636618     0.4621072
C           4.7537915    -0.1130220    -0.5764469
C           4.6256398    -0.7929328    -1.9300972
H           3.5774554    -0.7858249    -2.2515259
H           5.2001610    -0.2311302    -2.6742659
C           5.7814051     0.8115918    -0.3601227
H           6.4902020     1.0060302    -1.1628698
C           5.0589373    -2.2611884    -1.9133717
O           4.3821290    -3.1369205    -1.3775473
N           6.2365919    -2.5446766    -2.5320941
H           6.5954412    -3.4875017    -2.4642608
H           6.8462364    -1.8233347    -2.8849804
C          -1.3679573    -1.0399736     0.6614783
H          -2.4484807    -0.9832695     0.7550474
C          -0.5584816    -0.0049038     1.1288318
H          -1.0084849     0.8722374     1.5878784
C           0.8311772    -0.0681324     1.0223690
H           1.4312324     0.7610641     1.3781530
C           1.4455020    -1.1821176     0.4233865
C           0.6229149    -2.2255316    -0.0482324
H           1.0859477    -3.0953414    -0.5089025
C          -0.7604745    -2.1512705     0.0703173
H          -1.3686683    -2.9706124    -0.3052386
31
328_C14H14N2O_8-0-26-24 (0,) energy =    -726.6711592
N           2.7781452    -1.2543183     0.1210333
H           3.0589780    -2.0415826    -0.4624718
C           5.9193151     1.4565536     0.9009614
H           6.7384401     2.1422653     1.0969026
C           4.9294593     1.2358134     1.8596555
H           4.9778284     1.7377305     2.8224818
C           3.8863321     0.3513299     1.6016894
H           3.1487063     0.1437508     2.3691576
C           3.7929620    -0.3215924     0.3696673
C           4.7911520    -0.0916469    -0.6096897
C           4.7124719    -0.7442149    -1.9801514
H           3.6853447    -0.6866930    -2.3599640
H           5.3533708    -0.1979719    -2.6804429
C           5.8413973     0.7847670    -0.3178560
H           6.6010982     0.9630845    -1.0766420
C           5.0801960    -2.2299914    -1.9632078
O           4.3328405    -3.0838287    -1.4884090
N           6.2823337    -2.5558624    -2.5100278
H           6.5974853    -3.5133481    -2.4308624
H           6.9465545    -1.8555698    -2.8016421
C          -1.3845916    -1.0705759     0.8005699
H          -2.4566808    -1.0431523     0.9719128
C          -0.5824791     0.0203244     1.1348685
H          -1.0310320     0.9130165     1.5643389
C           0.7965493    -0.0037508     0.9252982
H           1.3891515     0.8699519     1.1699432
C           1.4073510    -1.1390538     0.3625674
C           0.5918845    -2.2384920     0.0240824
H           1.0525861    -3.1237864    -0.4083600
C          -0.7811777    -2.1992514     0.2386191
H          -1.3844128    -3.0616388    -0.0344649
31
328_C14H14N2O_8-0-26-24 (15,) energy =    -726.6721679
N           2.7252716    -1.1623131    -0.0472566
H           3.0079798    -1.9633947    -0.6110096
C           5.9309042     1.3891363     0.9694249
H           6.7659322     2.0357636     1.2224759
C           4.8835934     1.1902330     1.8700937
H           4.9019636     1.6696760     2.8454160
C           3.8174692     0.3591096     1.5395033
H           3.0306233     0.1748661     2.2624756
C           3.7608870    -0.2854167     0.2896861
C           4.8190596    -0.0782042    -0.6312552
C           4.7853297    -0.7029553    -2.0161746
H           3.7810365    -0.5991740    -2.4447030
H           5.4817765    -0.1710369    -2.6731511
C           5.8875492     0.7466259    -0.2669006
H           6.6920551     0.9072373    -0.9822900
C           5.0944187    -2.2018016    -2.0071623
O           4.2936521    -3.0334749    -1.5818937
N           6.3075986    -2.5667145    -2.5027083
H           6.5821604    -3.5365670    -2.4228233
H           7.0120549    -1.8884940    -2.7484867
C          -1.3832134    -1.1094123     0.9131897
H          -2.4425962    -1.1118222     1.1524297
C          -0.6088088     0.0313061     1.1265261
H          -1.0675951     0.9324012     1.5265025
C           0.7528604     0.0464528     0.8256514
H           1.3240084     0.9564553     0.9701343
C           1.3751031    -1.1012831     0.3010154
C           0.5877713    -2.2498727     0.0839157
H           1.0579093    -3.1435337    -0.3199652
C          -0.7705676    -2.2478416     0.3823992
H          -1.3535611    -3.1479321     0.2034003
31
328_C14H14N2O_8-0-26-24 (30,) energy =    -726.6726915
N           2.6775385    -1.0614049    -0.2080578
H           2.9631665    -1.8769628    -0.7500644
C           5.9423845     1.3130742     1.0317039
H           6.7914925     1.9170442     1.3376667
C           4.8460657     1.1403817     1.8774286
H           4.8383368     1.5979900     2.8633998
C           3.7600567     0.3664906     1.4787371
H           2.9304647     0.2093269     2.1588718
C           3.7353549    -0.2496277     0.2139346
C           4.8443262    -0.0692724    -0.6519414
C           4.8483781    -0.6671792    -2.0489060
H           3.8674128    -0.5187521    -2.5168552
H           5.5920512    -0.1511823    -2.6656210
C           5.9281132     0.7004574    -0.2206331
H           6.7710568     0.8403027    -0.8950012
C           5.1021745    -2.1761065    -2.0518987
O           4.2552991    -2.9836593    -1.6711892
N           6.3205274    -2.5788222    -2.5038672
H           6.5560300    -3.5591539    -2.4275600
H           7.0584881    -1.9237900    -2.7111528
C          -1.3596187    -1.1489626     1.0138040
H          -2.4023475    -1.1827225     1.3158694
C          -0.6311356     0.0379245     1.1093717
H          -1.1102562     0.9415852     1.4783238
C           0.7070552     0.0931028     0.7227688
H           1.2445912     1.0339490     0.7709059
C           1.3533942    -1.0595565     0.2398868
C           0.6130567    -2.2528998     0.1406462
H           1.1027009    -3.1488633    -0.2335865
C          -0.7260227    -2.2910249     0.5179475
H          -1.2752800    -3.2251870     0.4307067
31
328_C14H14N2O_8-0-26-24 (45,) energy =    -726.6725892
N           2.6279139    -0.9550859    -0.3398490
H           2.9139811    -1.7814752    -0.8661204
C           5.9390477     1.2328866     1.1109495
H           6.7989595     1.7913647     1.4687449
C           4.7987993     1.0911527     1.9021601
H           4.7656006     1.5285025     2.8968105
C           3.6982593     0.3761948     1.4376091
H           2.8295764     0.2489111     2.0738600
C           3.7055759    -0.2124961     0.1603862
C           4.8584063    -0.0611631    -0.6519670
C           4.8977186    -0.6293132    -2.0606501
H           3.9430694    -0.4324101    -2.5640919
H           5.6858641    -0.1309611    -2.6352842
C           5.9537646     0.6502400    -0.1558625
H           6.8310933     0.7673380    -0.7895590
C           5.0921726    -2.1466123    -2.0845484
O           4.2041191    -2.9274943    -1.7438898
N           6.3067306    -2.5890572    -2.5093968
H           6.5015560    -3.5790891    -2.4444986
H           7.0759371    -1.9600618    -2.6805516
C          -1.3310796    -1.1787670     1.1033347
H          -2.3556496    -1.2429814     1.4583202
C          -0.6705291     0.0513235     1.0662904
H          -1.1853186     0.9549168     1.3834657
C           0.6411510     0.1439414     0.6052108
H           1.1312951     1.1106137     0.5473123
C           1.3306772    -1.0100316     0.1920358
C           0.6602319    -2.2450350     0.2265626
H           1.1843542    -3.1412698    -0.0964976
C          -0.6577430    -2.3231055     0.6711507
H          -1.1567834    -3.2887612     0.6882029
31
328_C14H14N2O_8-0-26-24 (60,) energy =    -726.6717382
N           2.5803807    -0.8243751    -0.4711458
H           2.8533890    -1.6428574    -1.0175098
C           5.9433734     1.1421018     1.1732558
H           6.8146448     1.6477909     1.5788767
C           4.7696302     1.0301968     1.9184656
H           4.7197548     1.4394437     2.9243559
C           3.6542453     0.3832357     1.3925946
H           2.7554113     0.2839176     1.9910194
C           3.6817937    -0.1670558     0.0992800
C           4.8685482    -0.0438954    -0.6676194
C           4.9322816    -0.5726212    -2.0908198
H           4.0080280    -0.3150037    -2.6225535
H           5.7652679    -0.0995169    -2.6219471
C           5.9763623     0.5999583    -0.1113129
H           6.8801027     0.6957220    -0.7107010
C           5.0538862    -2.0963754    -2.1476997
O           4.1101132    -2.8404610    -1.8827314
N           6.2698604    -2.5877444    -2.5118001
H           6.4142360    -3.5867745    -2.4524130
H           7.0790619    -1.9934282    -2.6058545
C          -1.2846703    -1.2112272     1.1849635
H          -2.2867626    -1.3142335     1.5916352
C          -0.7185109     0.0548130     1.0141040
H          -1.2851131     0.9441920     1.2783362
C           0.5610284     0.1935488     0.4804191
H           0.9844378     1.1799446     0.3159229
C           1.3134357    -0.9426344     0.1384534
C           0.7394201    -2.2121152     0.3077291
H           1.3142657    -3.0938517     0.0355749
C          -0.5513291    -2.3411937     0.8195537
H          -0.9801491    -3.3326274     0.9413864
31
328_C14H14N2O_8-0-26-24 (75,) energy =    -726.6702751
N           2.5427392    -0.7078430    -0.5656659
H           2.7995768    -1.5152503    -1.1367946
C           5.9474195     1.0281446     1.2487886
H           6.8281661     1.4772820     1.6981345
C           4.7441214     0.9564285     1.9500160
H           4.6787596     1.3431700     2.9639330
C           3.6167768     0.3808646     1.3687502
H           2.6915758     0.3158781     1.9307739
C           3.6630531    -0.1377825     0.0633703
C           4.8799987    -0.0519567    -0.6600905
C           4.9664844    -0.5408352    -2.0965408
H           4.0770366    -0.2181666    -2.6521066
H           5.8410883    -0.0957731    -2.5830555
C           5.9980499     0.5209760    -0.0496451
H           6.9255638     0.5877914    -0.6159216
C           5.0119719    -2.0661846    -2.1993043
O           4.0264771    -2.7696426    -1.9788820
N           6.2094592    -2.6076348    -2.5535803
H           6.3012086    -3.6142655    -2.5278286
H           7.0493291    -2.0529214    -2.6141615
C          -1.2418280    -1.2424171     1.2390470
H          -2.2237741    -1.3819646     1.6827223
C          -0.7938458     0.0395868     0.9096073
H          -1.4316369     0.9015529     1.0880983
C           0.4584088     0.2203694     0.3247611
H           0.7977766     1.2107303     0.0351777
C           1.2973055    -0.8801019     0.0947072
C           0.8432869    -2.1649724     0.4234798
H           1.4880623    -3.0191782     0.2332335
C          -0.4217739    -2.3428004     0.9849276
H          -0.7624104    -3.3452491     1.2311664
31
328_C14H14N2O_8-0-26-24 (90,) energy =    -726.6686166
N           2.5268547    -0.6004454    -0.6299018
H           2.7636714    -1.3804886    -1.2465681
C           5.9607373     0.9160575     1.3211873
H           6.8483758     1.3106737     1.8067466
C           4.7391959     0.8682841     1.9920708
H           4.6645295     1.2215163     3.0175461
C           3.6038125     0.3614659     1.3640637
H           2.6622743     0.3180661     1.9007807
C           3.6603557    -0.1119407     0.0418017
C           4.8958427    -0.0465690    -0.6517768
C           4.9958650    -0.4804401    -2.1050888
H           4.1364951    -0.0949635    -2.6679323
H           5.9016065    -0.0572031    -2.5525866
C           6.0205698     0.4576987     0.0049002
H           6.9626925     0.5091156    -0.5384657
C           4.9749049    -2.0006849    -2.2684288
O           3.9503067    -2.6635801    -2.1096925
N           6.1583063    -2.5846431    -2.6033113
H           6.2030496    -3.5947774    -2.6105888
H           7.0248936    -2.0690043    -2.6067687
C          -1.1958248    -1.2571810     1.2720889
H          -2.1607646    -1.4280927     1.7417021
C          -0.8789945     0.0021345     0.7573156
H          -1.6001550     0.8130524     0.8187826
C           0.3533635     0.2188484     0.1406772
H           0.6004836     1.1855633    -0.2883109
C           1.2939271    -0.8153633     0.0591119
C           0.9717897    -2.0779295     0.5741145
H           1.6986549    -2.8821589     0.4961292
C          -0.2700087    -2.2973733     1.1721054
H          -0.5118079    -3.2820679     1.5637518
31
328_C14H14N2O_8-0-26-24 (105,) energy =    -726.6672166
N           2.5260418    -0.5108937    -0.6271387
H           2.7349806    -1.2405326    -1.3120836
C           5.9958605     0.8069055     1.4011734
H           6.8924940     1.1512708     1.9079348
C           4.7669806     0.7776511     2.0596377
H           4.6948069     1.0981696     3.0960068
C           3.6203059     0.3350698     1.4045317
H           2.6718577     0.3110523     1.9301225
C           3.6716341    -0.0947053     0.0663006
C           4.9150231    -0.0419664    -0.6157319
C           5.0135330    -0.4118401    -2.0870756
H           4.1816458     0.0401477    -2.6415708
H           5.9443685    -0.0115462    -2.5030873
C           6.0501077     0.3987985     0.0682928
H           6.9974171     0.4410614    -0.4669114
C           4.9242770    -1.9195367    -2.3235021
O           3.8614564    -2.5341054    -2.2414892
N           6.0919773    -2.5486235    -2.6321464
H           6.0871971    -3.5586976    -2.6786965