18
056_C7H7NO3_13-0-2-7 (-165,) energy =    -551.3877954
N           2.0712881    -1.6721616    -0.6102722
H           2.9919921    -1.8859662    -0.9827736
C           1.9803857    -0.5860161     0.1994831
C           5.5511708     1.5841780     1.1247500
H           6.5104248     2.0625270     1.2899915
O           5.6588292     0.5210677     0.3106853
C           4.5579658    -0.2729537    -0.0557870
C           3.2766258     0.1336209     0.5004630
C           3.2110025     1.2241658     1.3247467
H           2.2334288     1.4904977     1.7158893
C           4.3704456     1.9806043     1.6555801
H           4.3245517     2.8441875     2.3077482
O           0.9237339    -0.1569999     0.6627232
C           0.8983214    -2.2576026    -1.2346796
H           0.7959479    -1.9293155    -2.2774974
H           0.0184478    -1.9384797    -0.6750478
H           0.9625339    -3.3504469    -1.2160193
O           4.7991153    -1.2062312    -0.7974195
18
056_C7H7NO3_13-0-2-7 (-150,) energy =    -551.3847103
N           2.0522492    -1.7774249    -0.4705909
H           2.9740880    -1.9846581    -0.8466169
C           1.9885042    -0.6692703     0.3211925
C           5.5539910     1.5913294     1.0282900
H           6.5094893     2.0931566     1.1358080
O           5.6511967     0.4958079     0.2576856
C           4.5528106    -0.3344678    -0.0298968
C           3.2849973     0.0757336     0.5543646
C           3.2308283     1.1991305     1.3348810
H           2.2641793     1.4653990     1.7523267
C           4.3866938     1.9901189     1.5867861
H           4.3488822     2.8805710     2.2022993
O           0.9416295    -0.2203395     0.7848277
C           0.9073099    -2.1794505    -1.2754169
H           0.9141769    -1.6840986    -2.2559342
H          -0.0047779    -1.9023446    -0.7456461
H           0.9184747    -3.2627701    -1.4277370
O           4.7851929    -1.2970361    -0.7354362
18
056_C7H7NO3_13-0-2-7 (-135,) energy =    -551.3795956
N           2.0275537    -1.8693884    -0.3591198
H           2.9613892    -2.0741532    -0.7085651
C           1.9905929    -0.7630354     0.4507190
C           5.5150364     1.6179800     0.9406378
H           6.4574237     2.1527486     0.9893034
O           5.6162697     0.4945902     0.2124443
C           4.5346708    -0.3818683     0.0065642
C           3.2757528     0.0197854     0.6160859
C           3.2189573     1.1705999     1.3562856
H           2.2622193     1.4254712     1.8025889
C           4.3584615     2.0047850     1.5294720
H           4.3169943     2.9182557     2.1100153
O           0.9539088    -0.3220818     0.9402849
C           0.9562728    -2.0889781    -1.3273652
H           1.1254954    -1.5148705    -2.2487620
H           0.0109919    -1.7769466    -0.8812286
H           0.8939643    -3.1513657    -1.5802539
O           4.7725502    -1.3712678    -0.6580992
18
056_C7H7NO3_13-0-2-7 (-120,) energy =    -551.3729532
N           1.9922085    -1.9530113    -0.2563797
H           2.9347476    -2.1754743    -0.5721600
C           1.9930025    -0.8498051     0.5763352
C           5.4747653     1.6274055     0.8446678
H           6.4040840     2.1866540     0.8337380
O           5.5762505     0.4795283     0.1567009
C           4.5105165    -0.4324121     0.0303965
C           3.2650884    -0.0340517     0.6700191
C           3.2101899     1.1411856     1.3720668
H           2.2672056     1.3897758     1.8499812
C           4.3333946     2.0089024     1.4662766
H           4.2919667     2.9427451     2.0134572
O           0.9744316    -0.4238034     1.1096024
C           1.0284065    -1.9833732    -1.3607199
H           1.3555196    -1.3559067    -2.2016197
H           0.0639250    -1.6229082    -0.9987962
H           0.9056235    -3.0108592    -1.7148268
O           4.7499475    -1.4445179    -0.5973466
18
056_C7H7NO3_13-0-2-7 (-105,) energy =    -551.3656471
N           1.9618252    -2.0265164    -0.1428095
H           2.9046137    -2.3044369    -0.4132761
C           2.0209818    -0.9189957     0.7026896
C           5.4860440     1.5967872     0.7295281
H           6.4067092     2.1654445     0.6540998
O           5.5689270     0.4249609     0.0818094
C           4.5086739    -0.5036776     0.0419030
C           3.2869481    -0.0885426     0.7167212
C           3.2532246     1.1107013     1.3794613
H           2.3316428     1.3699162     1.8922499
C           4.3704339     1.9906452     1.3897509
H           4.3443439     2.9438817     1.9033716
O           1.0350246    -0.5011836     1.2939892
C           1.1458074    -1.8756129    -1.3580922
H           1.5947108    -1.1760343    -2.0781811
H           0.1524332    -1.5147956    -1.0825533
H           1.0378658    -2.8521501    -1.8376235
O           4.7341621    -1.5406412    -0.5474546
18
056_C7H7NO3_13-0-2-7 (-90,) energy =    -551.3587031
N           1.8801752    -2.0863864    -0.0717104
H           2.8252228    -2.4142744    -0.2751687
C           1.9822913    -0.9786648     0.7953653
C           5.4015613     1.5951446     0.6431457
H           6.3089757     2.1771718     0.5216230
O           5.4786473     0.4136380     0.0144101
C           4.4302362    -0.5324633     0.0303089
C           3.2292206    -0.1216608     0.7441900
C           3.2035614     1.0885731     1.3882921
H           2.2999366     1.3438998     1.9340367
C           4.3063011     1.9846983     1.3399654
H           4.2854792     2.9467369     1.8370992
O           1.0328506    -0.5970807     1.4590198
C           1.2587718    -1.7690696    -1.3735543
H           1.8458532    -1.0531413    -1.9682274
H           0.2595784    -1.3584025    -1.2070928
H           1.1581798    -2.6960338    -1.9440239
O           4.6501922    -1.5765420    -0.5463047
18
056_C7H7NO3_13-0-2-7 (-75,) energy =    -551.3596619
N           1.7775814    -1.0926617    -1.4206892
H           1.6471781    -1.6652116    -2.2546530
C           3.0426984    -1.4517815    -0.9090337
C           4.9139962     1.3420809     1.7114473
H           5.4949795     1.9574857     2.3911730
O           5.1773109     0.0386247     1.8669703
C           4.5436830    -0.9794575     1.0907588
C           3.6245945    -0.4765870     0.0695727
C           3.3691664     0.8641326    -0.0337294
H           2.6704274     1.2009993    -0.7936042
C           4.0252200     1.8133839     0.8042168
H           3.8429713     2.8771842     0.7142826
O           3.6924641    -2.3705245    -1.3741436
C           0.6095562    -1.2537252    -0.5359297
H          -0.2745965    -0.8438093    -1.0322978
H           0.7695582    -0.6937852     0.3894866
H           0.4189253    -2.3039251    -0.2767126
O           4.8076181    -2.1154030     1.3770566
18
056_C7H7NO3_13-0-2-7 (-60,) energy =    -551.3631516
N           1.7707993    -1.2060627    -1.4268751
H           1.5959924    -1.8161589    -2.2232425
C           3.0797419    -1.4404918    -1.0021835
C           4.8562101     1.3050075     1.7328267
H           5.4176616     1.9039878     2.4425930
O           5.0921237    -0.0059889     1.8873044
C           4.4777396    -1.0022871     1.0764631
C           3.6104036    -0.4776303     0.0231219
C           3.3785884     0.8653219    -0.0808278
H           2.7173876     1.2238231    -0.8648833
C           4.0141522     1.7976133     0.7942402
H           3.8521535     2.8649306     0.7069330
O           3.8074994    -2.2461010    -1.5564645
C           0.6527984    -1.2248899    -0.4748297
H          -0.2388735    -0.8132766    -0.9565789
H           0.8932768    -0.5988555     0.3872534
H           0.4263216    -2.2374381    -0.1147077
O           4.7056077    -2.1483744     1.3584340
18
056_C7H7NO3_13-0-2-7 (-45,) energy =    -551.3664770
N           1.5701797    -1.3068670    -1.2774832
H           1.3403128    -1.7599900    -2.1585454
C           2.9025647    -0.9563585    -1.3192365
C           4.6778529     1.2770136     1.8659039
H           5.1002782     1.7529982     2.7443078
O           4.2097039     0.0469373     2.1386671
C           3.6237683    -0.7817038     1.1555321
C           3.4828468    -0.1772204    -0.1596462
C           4.0161866     1.0552845    -0.4101560
H           3.9742862     1.4487385    -1.4216082
C           4.6183605     1.8247394     0.6302478
H           5.0183348     2.8147311     0.4486446
O           3.5473326    -1.0521028    -2.3575062
C           0.8404174    -1.8696968    -0.1383487
H          -0.2108420    -1.9533874    -0.4274807
H           0.9008204    -1.2009749     0.7215903
H           1.2192429    -2.8506265     0.1649565
O           3.3205327    -1.9027693     1.4945911
18
056_C7H7NO3_13-0-2-7 (-30,) energy =    -551.3694085
N           1.6304213    -1.4014305    -1.2980122
H           1.3982858    -1.9105884    -2.1449794
C           2.9266298    -0.9600067    -1.3562005
C           4.6581530     1.2429770     1.8727492
H           5.0776792     1.7052214     2.7599080
O           4.2287205    -0.0068586     2.1160097
C           3.6554191    -0.8249518     1.1152700
C           3.4822851    -0.1877797    -0.1809245
C           3.9750509     1.0673254    -0.4007707
H           3.9093183     1.4875590    -1.4002433
C           4.5672434     1.8243105     0.6542106
H           4.9363968     2.8302727     0.4967456
O           3.5745505    -1.0219490    -2.3961974
C           0.8579347    -1.7792627    -0.1180631
H          -0.1867206    -1.8903703    -0.4218282
H           0.9041565    -0.9862567     0.6319413
H           1.2115433    -2.7071053     0.3411587
O           3.3865916    -1.9621244     1.4270264
18
056_C7H7NO3_13-0-2-7 (-15,) energy =    -551.3711863
N           1.6762457    -1.5090515    -1.2835408
H           1.4359312    -2.0217037    -2.1240943
C           2.9165722    -0.9476823    -1.3786453
C           4.6608607     1.2175592     1.8690982
H           5.0858759     1.6717778     2.7579040
O           4.2348650    -0.0344996     2.1020053
C           3.6540143    -0.8453444     1.0972671
C           3.4718627    -0.1949604    -0.1916684
C           3.9632227     1.0636194    -0.4001310
H           3.8913232     1.4896154    -1.3966530
C           4.5612410     1.8114089     0.6569150
H           4.9280909     2.8193847     0.5071308
O           3.5330419    -0.9351005    -2.4411699
C           0.8631343    -1.7651001    -0.1026456
H          -0.1752212    -1.8859433    -0.4246894
H           0.9039463    -0.9080475     0.5741107
H           1.1860464    -2.6536449     0.4475107
O           3.3908404    -1.9847378     1.4039332
18
056_C7H7NO3_13-0-2-7 (0,) energy =    -551.3720342
N           1.7318931    -1.6082226    -1.2585724
H           1.4747956    -2.0880033    -2.1122408
C           2.9010373    -0.9224667    -1.3891132
C           4.6741759     1.2046391     1.8682869
H           5.1067441     1.6524542     2.7568426
O           4.2380385    -0.0433060     2.0983832
C           3.6437334    -0.8482486     1.0934903
C           3.4651388    -0.1920760    -0.1937980
C           3.9672806     1.0640972    -0.3974400
H           3.8956341     1.4903892    -1.3937762
C           4.5755285     1.8036382     0.6581520
H           4.9509876     2.8086377     0.5098043
O           3.4685045    -0.8254192    -2.4758483
C           0.8675874    -1.7780964    -0.1004220
H          -0.1608988    -1.8983503    -0.4538751
H           0.9010854    -0.8854502     0.5292563
H           1.1510837    -2.6401553     0.5097992
O           3.3704286    -1.9834719     1.4041116
18
056_C7H7NO3_13-0-2-7 (15,) energy =    -551.3721486
N           1.3721525    -0.8938511    -1.2004048
H           0.5386084    -0.7789499    -1.7634559
C           1.8403003     0.3009457    -0.7437740
C           5.4033111     0.6374171     1.5958997
H           6.3514847     0.6486740     2.1234337
O           5.3973982    -0.2555366     0.5957986
C           4.2772079    -0.4569674    -0.2540632
C           3.1016966     0.3341528     0.0841668
C           3.1682488     1.2636293     1.0869347
H           2.2985909     1.8914852     1.2571020
C           4.3370425     1.4204677     1.8854711
H           4.3850543     2.1383867     2.6949539
O           1.2461386     1.3528832    -0.9768730
C           1.7249185    -2.2465728    -0.7921175
H           2.1753975    -2.2377635     0.2032644
H           2.4303136    -2.7149533    -1.4836850
H           0.8097212    -2.8447423    -0.7392517
O           4.4286411    -1.2382168    -1.1622009
18
056_C7H7NO3_13-0-2-7 (30,) energy =    -551.3714690
N           1.4202754    -0.9021995    -1.2748404
H           0.5703179    -0.7679007    -1.8100807
C           1.8071725     0.2719447    -0.6940481
C           5.4093442     0.6549564     1.5779638
H           6.3670060     0.6823882     2.0877049
O           5.3903564    -0.2565584     0.5963563
C           4.2539054    -0.4871903    -0.2280095
C           3.0842282     0.3155717     0.1073300
C           3.1635022     1.2591749     1.0970033
H           2.2918272     1.8835185     1.2696739
C           4.3432049     1.4366754     1.8731015
H           4.4006401     2.1696123     2.6683645
O           1.1562214     1.3050667    -0.8447509
C           1.6813211    -2.2625117    -0.8132623
H           2.1521884    -2.2477981     0.1716432
H           2.3397420    -2.8035965    -1.4976600
H           0.7293349    -2.7964463    -0.7215737
O           4.3939596    -1.2990646    -1.1096124
18
056_C7H7NO3_13-0-2-7 (45,) energy =    -551.3701673
N           1.6188500    -1.0511879    -1.2949217
H           0.7471909    -0.9522722    -1.8076700
C           1.8528992     0.1274597    -0.6269452
C           5.3763548     0.9402710     1.6607132
H           6.3215079     1.0896440     2.1727569
O           5.4634742     0.0005096     0.7117304
C           4.3645962    -0.3919852    -0.1032618
C           3.1163034     0.3068888     0.1783224
C           3.0864895     1.2829012     1.1412843
H           2.1521395     1.8176199     1.2827886
C           4.2280955     1.6092525     1.9236500
H           4.1959153     2.3689290     2.6948311
O           1.0821326     1.0793810    -0.7392619
C           1.8174309    -2.3930901    -0.7452728
H           1.1263664    -2.6106128     0.0811907
H           2.8461880    -2.5155071    -0.4117157
H           1.6436851    -3.1182135    -1.5447299
O           4.6017528    -1.2397050    -0.9290712
18
056_C7H7NO3_13-0-2-7 (60,) energy =    -551.3677377
N           1.6920782    -1.0758124    -1.4004501
H           0.8317252    -0.9511896    -1.9301741
C           1.8109998     0.0319092    -0.5802553
C           5.3652021     0.9889865     1.6012163
H           6.3186703     1.1800874     2.0834683
O           5.4545774     0.0276875     0.6763734
C           4.3431355    -0.4254594    -0.0947730
C           3.0882028     0.2625738     0.1867135
C           3.0542026     1.2528742     1.1361198
H           2.1061062     1.7585924     1.2922242
C           4.2044563     1.6308371     1.8796408
H           4.1698163     2.4070666     2.6340442
O           0.9501443     0.9092039    -0.5769238
C           1.8049739    -2.4539438    -0.9053712
H           0.9972845    -2.7084790    -0.2050993
H           2.7714137    -2.6020428    -0.4261401
H           1.7557890    -3.1315724    -1.7617560
O           4.5825269    -1.3080522    -0.8809656
18
056_C7H7NO3_13-0-2-7 (75,) energy =    -551.3639016
N           1.7656160    -1.0540831    -1.4161468
H           0.9249483    -0.8701619    -1.9634506
C           1.7992448    -0.0370689    -0.4618937
C           5.3924499     1.0710346     1.5760631
H           6.3574650     1.3035928     2.0153795
O           5.4653631     0.0506748     0.7163707
C           4.3343980    -0.4692754     0.0166765
C           3.0877783     0.2474456     0.2633025
C           3.0675457     1.2872918     1.1593463
H           2.1170899     1.7896171     1.3119574
C           4.2328872     1.7192591     1.8466282
H           4.2112204     2.5415429     2.5510762
O           0.8662012     0.7532834    -0.3514078
C           1.7535579    -2.4692232    -1.0032246
H           0.8725813    -2.7134742    -0.3935659
H           2.6634152    -2.7018463    -0.4508287
H           1.7445259    -3.0882119    -1.9041519
O           4.5543367    -1.4270596    -0.6813219
18
056_C7H7NO3_13-0-2-7 (90,) energy =    -551.3589589
N           1.8551590    -1.0417507    -1.4223172
H           1.0422897    -0.7776897    -1.9821083
C           1.8093042    -0.1351630    -0.3429011
C           5.4259232     1.1427901     1.5338480
H           6.4012115     1.4210238     1.9207441
O           5.4866909     0.0622155     0.7497739
C           4.3371878    -0.5266504     0.1412003
C           3.0978973     0.2153991     0.3439649
C           3.0857666     1.3075599     1.1750501
H           2.1336342     1.8078484     1.3243683
C           4.2662286     1.7946254     1.7970475
H           4.2567164     2.6638422     2.4429952
O           0.8073731     0.5354686    -0.1240853
C           1.7063921    -2.4822867    -1.1206265
H           0.7671275    -2.7004187    -0.5933957
H           2.5539191    -2.8193776    -0.5232081
H           1.7211193    -3.0313902    -2.0657284
O           4.5318589    -1.5595283    -0.4475034
18
056_C7H7NO3_13-0-2-7 (105,) energy =    -551.3656471
N           1.8013586    -1.1172120    -1.3644189
H           2.7301943    -1.2693841    -1.7560182
C           1.8429783    -0.0689822    -0.4454784
C           5.5510168     1.0678442     1.3696285
H           6.5389612     1.2702330     1.7692406
O           5.5972443     0.2220798     0.3293728
C           4.4465290    -0.1882993    -0.3745742
C           3.1842245     0.3325770     0.1310011
C           3.1864249     1.2069157     1.1864985
H           2.2257859     1.5925876     1.5149610
C           4.3914336     1.5888812     1.8381275
H           4.3965747     2.2712946     2.6792175
O           0.8264841     0.4130613     0.0348209
C           1.2817745    -2.4005591    -0.8657995
H           1.1365343    -3.0781848    -1.7113497
H           0.3147161    -2.2356341    -0.3856943
H           1.9636777    -2.8754817    -0.1454462
O           4.6380831    -0.9257828    -1.3195112
18
056_C7H7NO3_13-0-2-7 (120,) energy =    -551.3729565
N           1.8636182    -1.2060710    -1.2789063
H           2.8092030    -1.3906611    -1.6096693
C           1.8513039    -0.1817922    -0.3511051
C           5.5213732     1.1830259     1.3810361
H           6.5032229     1.4473090     1.7587128
O           5.5968005     0.3070091     0.3670492
C           4.4605472    -0.1841933    -0.3045104
C           3.1802939     0.2947602     0.1959451
C           3.1509412     1.1980317     1.2256354
H           2.1753527     1.5439177     1.5542899
C           4.3431357     1.6593842     1.8495379
H           4.3241105     2.3671815     2.6691971
O           0.8165446     0.2399199     0.1537346
C           1.1528125    -2.4450393    -0.9486666
H           0.9701431    -3.0188702    -1.8615939
H           0.1912348    -2.1927338    -0.4982604
H           1.7266813    -3.0676634    -0.2480039
O           4.6765800    -0.9508194    -1.2217695
18
056_C7H7NO3_13-0-2-7 (135,) energy =    -551.3795943
N           1.9326904    -1.2753805    -1.1860051
H           2.8760454    -1.4981679    -1.4961775
C           1.8931013    -0.2794449    -0.2442333
C           5.5529424     1.2790620     1.3395091
H           6.5335188     1.5967878     1.6771209
O           5.6353135     0.3698742     0.3551981
C           4.5020303    -0.1931993    -0.2609598
C           3.2178636     0.2581132     0.2538418
C           3.1801890     1.1921410     1.2546957
H           2.2003383     1.5082429     1.6003371
C           4.3698554     1.7231849     1.8264909
H           4.3449161     2.4583377     2.6215422
O           0.8541365     0.1035960     0.2872503
C           1.0599196    -2.4379027    -1.0413080
H           0.9188377    -2.9191747    -2.0132777
H           0.0901133    -2.1060934    -0.6679812
H           1.4818717    -3.1713425    -0.3403320
O           4.7234720    -0.9929134    -1.1489541
18
056_C7H7NO3_13-0-2-7 (150,) energy =    -551.3847085
N           1.9910428    -1.3662682    -1.0834233
H           2.9310748    -1.6096434    -1.3854805
C           1.9254951    -0.3919555    -0.1319027
C           5.5558088     1.3666647     1.3001172
H           6.5306790     1.7380850     1.5968335
O           5.6513381     0.4212268     0.3511872
C           4.5281280    -0.2146963    -0.2078448
C           3.2394606     0.2089557     0.3183000
C           3.1875858     1.1770271     1.2848954
H           2.2040916     1.4636067     1.6457013
C           4.3681310     1.7807084     1.8016440
H           4.3326284     2.5459139     2.5674084
O           0.8809768    -0.0382065     0.4124097
C           0.9899822    -2.4226161    -1.1311390
H           0.8884556    -2.7950438    -2.1547285
H           0.0342233    -2.0120529    -0.8035159
H           1.2608103    -3.2607685    -0.4745758
O           4.7601570    -1.0472044    -1.0630696
18
056_C7H7NO3_13-0-2-7 (165,) energy =    -551.3877945
N           2.0130898    -1.3928919    -0.8770996
H           2.9414068    -1.6534934    -1.1975419
C           1.9506316    -0.3992585     0.0464688
C           5.5901347     1.4867274     1.2765419
H           6.5662298     1.8920096     1.5199776
O           5.6732396     0.4981113     0.3708139
C           4.5462305    -0.1884991    -0.1136686
C           3.2673513     0.2369546     0.4340171
C           3.2273723     1.2475892     1.3560248
H           2.2508805     1.5312113     1.7376139
C           4.4119304     1.8999704     1.8000433
H           4.3863397     2.7006503     2.5290586
O           0.9103775    -0.0233797     0.5866529
C           0.8976940    -2.2947548    -1.1018848
H           0.7699566    -2.4842575    -2.1727251
H          -0.0046294    -1.8252148    -0.7087883
H           1.0521392    -3.2544726    -0.5912789
O           4.7662535    -1.0608891    -0.9321127
18
056_C7H7NO3_13-0-2-7 (180,) energy =    -551.3887715
N           2.0578604    -1.5551446    -0.7536044
H           2.9823404    -1.7986340    -1.0961149
C           1.9665485    -0.4990983     0.0910333
C           5.5626243     1.5393833     1.1989187
H           6.5287456     1.9833509     1.4128587
O           5.6668593     0.5027661     0.3505950
C           4.5563657    -0.2423624    -0.0822995
C           3.2695292     0.1815936     0.4473731
C           3.2070879     1.2435391     1.3081387
H           2.2251047     1.5248767     1.6771217
C           4.3765278     1.9514558     1.7050730
H           4.3336368     2.7921384     2.3866949
O           0.9102130    -0.0855473     0.5700867
C           0.8923880    -2.3040714    -1.1826958
H           0.6575454    -2.1102597    -2.2371429
H           0.0448260    -1.9937181    -0.5704315
H           1.0617944    -3.3787553    -1.0544872
O           4.7947593    -1.1552775    -0.8500025
