25
093_C11H12N2_21-0-12-10 (-165,) energy =    -535.8917476
C           2.6421742    -1.4393276    -0.8012547
C           1.5980828    -1.7559110     0.2829408
H           2.0852123    -2.2284763     1.1404965
H           0.8333336    -2.4366621    -0.1041885
H           1.1115740    -0.8444057     0.6437511
H           3.1187147    -2.3846626    -1.0884353
C           5.7544835     1.1549565     0.7594998
H           6.5349267     1.7956738     1.1607715
C           5.6411172    -0.1688286     1.1905959
H           6.3353377    -0.5653882     1.9267558
C           4.6407415    -0.9883617     0.6710633
H           4.5678953    -2.0212245     1.0063840
C           3.7364282    -0.5025552    -0.2843769
C           3.8612733     0.8219108    -0.7152195
H           3.1796308     1.2133101    -1.4637715
C           4.8635654     1.6446616    -0.1946539
H           4.9472350     2.6707931    -0.5427032
C           0.7529832     0.1180022    -3.4857472
H           0.0088935     0.7308921    -3.9771540
C           0.9292920    -0.0732262    -2.1373796
H           0.4069087     0.3151002    -1.2771152
N           1.9944494    -0.9502375    -2.0212753
C           2.3992793    -1.2255300    -3.3001551
H           3.2308459    -1.8895630    -3.4995749
N           1.6746270    -0.6065331    -4.2069786
25
093_C11H12N2_21-0-12-10 (-150,) energy =    -535.8918641
C           2.5882371    -1.4108958    -0.7462060
C           1.5036601    -1.5866161     0.3283712
H           1.9496430    -2.0274607     1.2247061
H           0.7040547    -2.2448542    -0.0265272
H           1.0703579    -0.6241343     0.6180331
H           3.0177257    -2.3994607    -0.9474630
C           5.7839784     1.1157455     0.7412399
H           6.5843715     1.7421037     1.1255479
C           5.7748763    -0.2544828     1.0081964
H           6.5700492    -0.7015754     1.5988518
C           4.7496678    -1.0559777     0.5062739
H           4.7531686    -2.1251787     0.7108417
C           3.7176916    -0.5027783    -0.2624889
C           3.7366971     0.8706790    -0.5292834
H           2.9553494     1.3122444    -1.1410719
C           4.7638071     1.6738237    -0.0302937
H           4.7678130     2.7379162    -0.2511011
C           0.8338263     0.0150150    -3.5948883
H           0.1019163     0.5839506    -4.1529095
C           0.9150169    -0.1468336    -2.2336568
H           0.3049243     0.2227032    -1.4245582
N           2.0074146    -0.9705882    -2.0199960
C           2.5211002    -1.2461742    -3.2589658
H           3.3962594    -1.8714002    -3.3825173
N           1.8401414    -0.6762564    -4.2297826
25
093_C11H12N2_21-0-12-10 (-135,) energy =    -535.8916821
C           3.0700077    -1.0035379    -1.8313992
C           3.4498061    -2.4911627    -1.8038880
H           4.4999039    -2.5997736    -2.0908261
H           2.8332051    -3.0668808    -2.5017463
H           3.3393385    -2.9140111    -0.8003308
H           3.2586613    -0.6317792    -2.8451791
C           5.5752998     1.2799041     0.8709188
H           6.2110331     1.8472549     1.5451659
C           5.8470373     1.2570330    -0.4970818
H           6.6942437     1.8087686    -0.8956374
C           5.0226880     0.5329923    -1.3603625
H           5.2359176     0.5253218    -2.4275835
C           3.9244193    -0.1819336    -0.8699083
C           3.6561689    -0.1495354     0.5043660
H           2.7915888    -0.6775016     0.8976878
C           4.4754156     0.5769216     1.3680467
H           4.2511855     0.5980515     2.4311909
C          -0.4498565    -0.9435846    -0.9073955
H          -1.3835781    -1.2475178    -0.4529018
C           0.7602997    -1.5905571    -0.8582013
H           1.0669087    -2.5136019    -0.3920071
N           1.6295389    -0.8143974    -1.6059902
C           0.8963722     0.2531621    -2.0501492
H           1.3397129     1.0308785    -2.6589096
N          -0.3579518     0.2077323    -1.6552369
25
093_C11H12N2_21-0-12-10 (-120,) energy =    -535.8912390
C           3.0997567    -1.0601312    -1.8096192
C           3.4209466    -2.5582765    -1.7263329
H           4.4734580    -2.7166421    -1.9798947
H           2.8006096    -3.1292478    -2.4245350
H           3.2647470    -2.9509306    -0.7166980
H           3.3295377    -0.7273977    -2.8280970
C           5.5393761     1.3116386     0.8788405
H           6.1534006     1.9062591     1.5496790
C           5.6827224     1.4391053    -0.5022984
H           6.4080621     2.1351673    -0.9149658
C           4.8868929     0.6767042    -1.3601095
H           5.0006509     0.7842014    -2.4369474
C           3.9470901    -0.2263349    -0.8524572
C           3.8075648    -0.3437662     0.5369347
H           3.0660206    -1.0216161     0.9513631
C           4.5967209     0.4193054     1.3959269
H           4.4734226     0.3201999     2.4710647
C          -0.4299659    -0.7976658    -0.9596157
H          -1.3781898    -1.0219100    -0.4890721
C           0.7583979    -1.4718884    -0.8235825
H           1.0300936    -2.3477243    -0.2554450
N           1.6591821    -0.8101905    -1.6400367
C           0.9659484     0.2254260    -2.2065166
H           1.4400220     0.9171882    -2.8911463
N          -0.2935185     0.2616581    -1.8272133
25
093_C11H12N2_21-0-12-10 (-105,) energy =    -535.8907988
C           3.1261240    -1.0882482    -1.7864107
C           3.3858779    -2.5981805    -1.6974983
H           4.4442170    -2.8028348    -1.8869290
H           2.7839974    -3.1317222    -2.4396546
H           3.1416289    -2.9989541    -0.7090044
H           3.3880106    -0.7650097    -2.7996036
C           5.5272983     1.2985755     0.9288866
H           6.1283741     1.9013816     1.6041025
C           5.4935671     1.5925321    -0.4340481
H           6.0684304     2.4261637    -0.8282855
C           4.7183894     0.8153818    -1.2964117
H           4.6954304     1.0525598    -2.3579816
C           3.9699906    -0.2651473    -0.8158011
C           4.0133738    -0.5519567     0.5551301
H           3.4416909    -1.3837626     0.9573108
C           4.7834380     0.2239439     1.4208759
H           4.8029824    -0.0118537     2.4815159
C          -0.3933868    -0.6180124    -0.9873420
H          -1.3321819    -0.7108079    -0.4573449
C           0.8069365    -1.2119891    -0.6849234
H           1.1015820    -1.8809582     0.1085818
N           1.6889481    -0.7912937    -1.6637294
C           0.9731135     0.0334770    -2.4892879
H           1.4291038     0.5083339    -3.3488797
N          -0.2830473     0.1580286    -2.1185615
25
093_C11H12N2_21-0-12-10 (-90,) energy =    -535.8911206
C           3.1373906    -1.0702447    -1.7744893
C           3.3170943    -2.5928980    -1.6856113
H           4.3745684    -2.8592161    -1.7831181
H           2.7555651    -3.0804053    -2.4884214
H           2.9477327    -2.9895458    -0.7351294
H           3.4375046    -0.7539450    -2.7793933
C           5.5199134     1.2581457     1.0063869
H           6.1162237     1.8492326     1.6960318
C           5.2824036     1.7187791    -0.2898032
H           5.6940583     2.6700308    -0.6160633
C           4.5187607     0.9553592    -1.1720625
H           4.3348936     1.3217020    -2.1797029
C           3.9771351    -0.2752619    -0.7786456
C           4.2288819    -0.7308231     0.5217209
H           3.8374344    -1.6890858     0.8510136
C           4.9912218     0.0313624     1.4088574
H           5.1750906    -0.3381787     2.4141435
C          -0.3557804    -0.3970767    -1.0135666
H          -1.2649535    -0.3042107    -0.4342534
C           0.8933186    -0.7543551    -0.5693912
H           1.2730505    -1.0039689     0.4093287
N           1.7104700    -0.7122345    -1.6835693
C           0.9095592    -0.3391349    -2.7295470
H           1.3019685    -0.2309502    -3.7330994
N          -0.3389221    -0.1388304    -2.3657261
25
093_C11H12N2_21-0-12-10 (-75,) energy =    -535.8914676
C           3.1242694    -1.1002643    -1.7498958
C           3.2250928    -2.6248389    -1.6081119
H           4.2687411    -2.9500333    -1.6704332
H           2.6598360    -3.1073638    -2.4109482
H           2.8092969    -2.9704871    -0.6567134
H           3.4660001    -0.8330589    -2.7565840
C           5.4886403     1.2624460     1.0186009
H           6.0786474     1.8648032     1.7039349
C           5.0506058     1.8025339    -0.1933278
H           5.2990530     2.8272535    -0.4560595
C           4.2970534     1.0260228    -1.0705545
H           3.9534660     1.4536900    -2.0098854
C           3.9638959    -0.2993517    -0.7564993
C           4.4111385    -0.8313285     0.4577336
H           4.1796641    -1.8581643     0.7235653
C           5.1671219    -0.0551433     1.3405467
H           5.5058824    -0.4858722     2.2790102
C          -0.3416581    -0.2279242    -1.0868039
H          -1.2520923    -0.0599673    -0.5267312
C           0.8860968    -0.6094809    -0.6050144
H           1.2481166    -0.8128761     0.3912977
N           1.7152823    -0.6718499    -1.7092357
C           0.9426722    -0.3319910    -2.7872289
H           1.3496088    -0.3047278    -3.7904966
N          -0.2995360    -0.0558631    -2.4523426
25
093_C11H12N2_21-0-12-10 (-60,) energy =    -535.8916423
C           3.1282417    -1.1543849    -1.7123626
C           3.1544315    -2.6721830    -1.4929446
H           4.1781761    -3.0557886    -1.5519674
H           2.5557930    -3.1637583    -2.2651859
H           2.7356489    -2.9452562    -0.5191557
H           3.5166957    -0.9559955    -2.7191158
C           5.5021161     1.2534629     1.0117650
H           6.0959727     1.8670793     1.6836828
C           4.8583990     1.8329914    -0.0854940
H           4.9491890     2.8999042    -0.2707375
C           4.0988321     1.0443730    -0.9453422
H           3.5921528     1.5023233    -1.7915926
C           3.9652288    -0.3356408    -0.7288039
C           4.6137361    -0.9053285     0.3713128
H           4.5336027    -1.9703981     0.5634205
C           5.3772786    -0.1157385     1.2367978
H           5.8733101    -0.5771188     2.0865746
C          -0.3173041    -0.1133442    -1.2224968
H          -1.2399121     0.1149031    -0.7053266
C           0.8758237    -0.5201062    -0.6785872
H           1.1940726    -0.6942658     0.3381244
N           1.7410253    -0.6642632    -1.7471503
C           1.0218166    -0.3449403    -2.8676905
H           1.4651332    -0.3798463    -3.8551940
N          -0.2191643    -0.0053436    -2.5919231
25
093_C11H12N2_21-0-12-10 (-45,) energy =    -535.8915600
C           3.1273629    -1.2152189    -1.6622082
C           3.0844201    -2.7165510    -1.3478720
H           4.0837717    -3.1582100    -1.4126412
H           2.4409234    -3.2226448    -2.0731029
H           2.6858559    -2.9060520    -0.3459759
H           3.5584566    -1.0999898    -2.6655139
C           5.5297655     1.2504282     0.9909827
H           6.1324742     1.8757011     1.6440142
C           4.6909894     1.8323273     0.0366731
H           4.6369417     2.9137683    -0.0556493
C           3.9170196     1.0297914    -0.7978729
H           3.2600999     1.4912887    -1.5301500
C           3.9652857    -0.3694424    -0.6994158
C           4.8073254    -0.9413723     0.2604199
H           4.8671234    -2.0196738     0.3648428
C           5.5847931    -0.1374861     1.0993461
H           6.2304214    -0.6028086     1.8394331
C          -0.2989887    -0.0465861    -1.3871049
H          -1.2422087     0.2183532    -0.9278445
C           0.8428817    -0.4943550    -0.7704283
H           1.0916958    -0.6745845     0.2644463
N           1.7648848    -0.6785612    -1.7843001
C           1.1267057    -0.3401917    -2.9476382
H           1.6268489    -0.3992306    -3.9064023
N          -0.1147484     0.0477195    -2.7487219
25
093_C11H12N2_21-0-12-10 (-30,) energy =    -535.8911908
C           3.1108045    -1.2618156    -1.5817212
C           3.0031509    -2.7322336    -1.1482542
H           3.9772470    -3.2279775    -1.1908125
H           2.3253145    -3.2627960    -1.8229762
H           2.6172875    -2.8210243    -0.1276686
H           3.5696041    -1.2449412    -2.5794910
C           5.5810436     1.2772372     0.9436307
H           6.2030764     1.9157979     1.5649079
C           4.5603150     1.8277627     0.1666826
H           4.3818067     2.8996665     0.1796327
C           3.7604117     1.0075192    -0.6280143
H           2.9656394     1.4479222    -1.2219786
C           3.9633890    -0.3798913    -0.6624162
C           4.9905971    -0.9213777     0.1215594
H           5.1761239    -1.9905427     0.1217781
C           5.7930236    -0.1004254     0.9168099
H           6.5820967    -0.5437776     1.5184245
C          -0.2852588     0.0180066    -1.5122222
H          -1.2492260     0.3044270    -1.1128134
C           0.7865973    -0.5070510    -0.8337766
H           0.9459818    -0.7428542     0.2074985
N           1.7726485    -0.6957666    -1.7850798
C           1.2398092    -0.2779683    -2.9751211
H           1.8079577    -0.3211151    -3.8960121
N           0.0048147     0.1588064    -2.8510595
25
093_C11H12N2_21-0-12-10 (-15,) energy =    -535.8910389
C           3.0729534    -1.3028013    -1.5247259
C           2.8884829    -2.7266777    -0.9721193
H           3.8443697    -3.2542123    -0.9173341
H           2.2245382    -3.2953217    -1.6297988
H           2.4550708    -2.7096795     0.0327396
H           3.5610682    -1.3874983    -2.5046120
C           5.6209025     1.2612851     0.8988250
H           6.2648159     1.9009949     1.4961580
C           4.4610880     1.7729743     0.3178558
H           4.1950373     2.8172061     0.4587226
C           3.6329715     0.9511648    -0.4490147
H           2.7339295     1.3654874    -0.8926961
C           3.9452321    -0.4006391    -0.6427386
C           5.1185667    -0.9025527    -0.0602934
H           5.3991422    -1.9419743    -0.2023306
C           5.9480157    -0.0810960     0.7032461
H           6.8507267    -0.4936785     1.1460586
C          -0.2768501     0.0873844    -1.6736094
H          -1.2618060     0.3890640    -1.3424883
C           0.7074152    -0.5270816    -0.9396349
H           0.7589351    -0.8360974     0.0932026
N           1.7661709    -0.7050613    -1.8124100
C           1.3606236    -0.1875334    -3.0134321
H           2.0077969    -0.1981362    -3.8815081
N           0.1377916     0.2961416    -2.9700024
25
093_C11H12N2_21-0-12-10 (0,) energy =    -535.8913508
C           3.0440576    -1.3506235    -1.4690706
C           2.8096671    -2.7144521    -0.7961358
H           3.7594656    -3.2313098    -0.6352353
H           2.1761588    -3.3446162    -1.4278617
H           2.3277219    -2.5972880     0.1793701
H           3.5528365    -1.5335081    -2.4240266
C           5.6475756     1.2487449     0.8486872
H           6.3076556     1.8929363     1.4230857
C           4.3848019     1.6968651     0.4645572
H           4.0543438     2.6958013     0.7366126
C           3.5352117     0.8709692    -0.2760036
H           2.5577232     1.2371602    -0.5714660
C           3.9328258    -0.4216187    -0.6346330
C           5.2108114    -0.8584553    -0.2541736
H           5.5546493    -1.8489351    -0.5423990
C           6.0602239    -0.0338521     0.4815974
H           7.0459940    -0.3930655     0.7651631
C          -0.2662839     0.0987235    -1.8267595
H          -1.2709084     0.4040880    -1.5654558
C           0.6382270    -0.5784280    -1.0465330
H           0.5889328    -0.9469231    -0.0335926
N           1.7643003    -0.7390495    -1.8353658
C           1.4745789    -0.1459169    -3.0351269
H           2.1942077    -0.1251411    -3.8438584
N           0.2627071     0.3648676    -3.0697038
25
093_C11H12N2_21-0-12-10 (15,) energy =    -535.8917400
C           3.0213891    -1.3689579    -1.4131978
C           2.7213990    -2.6605347    -0.6338850
H           3.6550056    -3.1841157    -0.4095788
H           2.0795839    -3.3254045    -1.2205392
H           2.2298274    -2.4440881     0.3196560
H           3.5454222    -1.6520000    -2.3343705
C           5.6871338     1.2293929     0.8224041
H           6.3633468     1.8700095     1.3818507
C           4.3634568     1.6148326     0.6143641
H           4.0027551     2.5604816     1.0102538
C           3.4924766     0.7951056    -0.1080922
H           2.4673883     1.1124793    -0.2709743
C           3.9349211    -0.4255246    -0.6273880
C           5.2705473    -0.8003748    -0.4220089
H           5.6369278    -1.7374410    -0.8369676
C           6.1403475     0.0167654     0.2978824
H           7.1727453    -0.2900693     0.4433220
C          -0.2290608     0.1480332    -1.9916602
H          -1.2483568     0.4601005    -1.8061233
C           0.5920624    -0.5797897    -1.1660001
H           0.4427120    -0.9981908    -0.1829452
N           1.7807968    -0.7294728    -1.8600100
C           1.6076430    -0.0787944    -3.0524160
H           2.3963223    -0.0350381    -3.7928868
N           0.4117419     0.4564939    -3.1701626
25
093_C11H12N2_21-0-12-10 (30,) energy =    -535.8918669
C           2.9858332    -1.3850573    -1.3505584
C           2.6218635    -2.5990142    -0.4808765
H           3.5341457    -3.1385682    -0.2102813
H           1.9570601    -3.2811971    -1.0205341
H           2.1359231    -2.2904241     0.4500427
H           3.5153145    -1.7588299    -2.2350567
C           5.7069186     1.2318202     0.7850154
H           6.3958310     1.8761777     1.3243220
C           4.3426035     1.5236467     0.7625096
H           3.9644045     2.3990532     1.2837382
C           3.4555207     0.6999504     0.0667269
H           2.3975101     0.9442417     0.0439381
C           3.9236948    -0.4276393    -0.6165484
C           5.2958366    -0.7093034    -0.5950793
H           5.6754922    -1.5762464    -1.1329571
C           6.1825827     0.1110682     0.1017902
H           7.2444574    -0.1202454     0.1033652
C          -0.2037872     0.1817273    -2.1225033
H          -1.2310420     0.5006042    -2.0047752
C           0.5471552    -0.5773315    -1.2590059
H           0.3174388    -1.0266332    -0.3057095
N           1.7825689    -0.7232295    -1.8673989
C           1.7043845    -0.0387352    -3.0507395
H           2.5462164     0.0172524    -3.7291905
N           0.5255705     0.5135606    -3.2412896
25
093_C11H12N2_21-0-12-10 (45,) energy =    -535.8917264
C           2.9629920    -1.4236331    -1.2858055
C           2.5476061    -2.5683065    -0.3502098
H           3.4398699    -3.1171248    -0.0348546
H           1.8685553    -3.2623279    -0.8561145
H           2.0600796    -2.1889937     0.5534169
H           3.4972691    -1.8658781    -2.1346998
C           5.7101315     1.2527064     0.7342450
H           6.4040236     1.9135405     1.2465614
C           4.3334267     1.4030217     0.9150823
H           3.9523613     2.1835287     1.5682197
C           3.4406957     0.5578289     0.2562408
H           2.3707907     0.6935221     0.3895253
C           3.9127574    -0.4470252    -0.5973543
C           5.2935021    -0.5874039    -0.7766478
H           5.6730525    -1.3602232    -1.4424368
C           6.1888194     0.2544265    -0.1145980
H           7.2577958     0.1342526    -0.2690440
C          -0.1704965     0.1722074    -2.2233460
H          -1.1985412     0.5032575    -2.1578368
C           0.5287297    -0.5883521    -1.3187533
H           0.2463556    -1.0309880    -0.3765708
N           1.7896813    -0.7545379    -1.8659476
C           1.7774262    -0.0780635    -3.0562255
H           2.6518774    -0.0364933    -3.6930742
N           0.6159157     0.4867111    -3.3077501
25
093_C11H12N2_21-0-12-10 (60,) energy =    -535.8912839
C           2.9388855    -1.4565551    -1.2329052
C           2.4516116    -2.5511887    -0.2743298
H           3.3130784    -3.1101041     0.1032576
H           1.7778673    -3.2456756    -0.7863073
H           1.9301541    -2.1295681     0.5906456
H           3.4914723    -1.9463369    -2.0426427
C           5.6881064     1.2735779     0.7133880
H           6.3814065     1.9512336     1.2040367
C           4.3414959     1.2564846     1.0856833
H           3.9839469     1.9225491     1.8663724
C           3.4506798     0.3877083     0.4574838
H           2.4027233     0.3944074     0.7454478
C           3.8898523    -0.4720129    -0.5582466
C           5.2395098    -0.4460847    -0.9246679
H           5.5950937    -1.1084213    -1.7114121
C           6.1357517     0.4194595    -0.2938220
H           7.1802185     0.4275357    -0.5937477
C          -0.0842075     0.2304391    -2.3579922
H          -1.0890095     0.6312509    -2.3348280
C           0.5621762    -0.4791938    -1.3761689
H           0.2487280    -0.8066745    -0.3972980
N           1.8105565    -0.7798846    -1.8928804
C           1.8452257    -0.2263000    -3.1444052
H           2.7214920    -0.3058745    -3.7751445
N           0.7232072     0.3835750    -3.4616243
25
093_C11H12N2_21-0-12-10 (75,) energy =    -535.8907954
C           2.9547632    -1.4826097    -1.1408119
C           2.3958702    -2.5590598    -0.2004898
H           3.2202636    -3.1198925     0.2508408
H           1.7573981    -3.2536164    -0.7551805
H           1.8035503    -2.1268649     0.6117479
H           3.5264487    -1.9903981    -1.9250013
C           5.6861353     1.2991980     0.7665322
H           6.3740333     1.9953873     1.2384570
C           4.4268168     1.0693918     1.3246762
H           4.1308584     1.5870268     2.2331978
C           3.5441148     0.1741505     0.7213519
H           2.5692406     0.0086047     1.1715226
C           3.9018016    -0.5021016    -0.4527051
C           5.1666147    -0.2634409    -1.0021660
H           5.4608714    -0.7809327    -1.9128299
C           6.0549209     0.6289618    -0.3996278
H           7.0326045     0.7990367    -0.8423815
C           0.0773877     0.3485575    -2.4114488
H          -0.8570561     0.8941310    -2.4084662
C           0.7373859    -0.1972730    -1.3383668
H           0.5076048    -0.2192090    -0.2844745
N           1.8694966    -0.7955028    -1.8612509
C           1.8285978    -0.5689269    -3.2107760
H           2.6066301    -0.9330378    -3.8698786
N           0.7643645     0.1107619    -3.5800255
25
093_C11H12N2_21-0-12-10 (90,) energy =    -535.8911457
C           2.9602114    -1.4730533    -1.1692986
C           2.3162134    -2.5359012    -0.2674743
H           3.0857357    -3.0854015     0.2845746
H           1.7465872    -3.2444012    -0.8765714
H           1.6256512    -2.0904380     0.4549415
H           3.5624049    -1.9916022    -1.9233411
C           5.5986769     1.3478091     0.8083707
H           6.2616555     2.0596509     1.2924470
C           4.4675496     0.8761577     1.4751340
H           4.2460254     1.2191471     2.4822384
C           3.6169466    -0.0410146     0.8550235
H           2.7476129    -0.4042503     1.3956174
C           3.8831109    -0.4995228    -0.4413615
C           5.0217247    -0.0177931    -1.1001310
H           5.2399194    -0.3610984    -2.1090331
C           5.8747165     0.8968646    -0.4835985
H           6.7544891     1.2552453    -1.0111849
C           0.2309441     0.4819396    -2.5705109
H          -0.5944015     1.1802936    -2.6146081
C           1.0110824     0.1665988    -1.4855759
H           1.0161428     0.5211262    -0.4664345
N           1.9297917    -0.7589491    -1.9440933
C           1.6481910    -0.9502719    -3.2703124
H           2.2232440    -1.6376207    -3.8783206
N           0.6348455    -0.2199830    -3.6838547
25
093_C11H12N2_21-0-12-10 (105,) energy =    -535.8914784
C           2.9284707    -1.4820145    -1.1405890
C           2.2047381    -2.4850966    -0.2326328
H           2.9239707    -3.0462289     0.3729711
H           1.6362050    -3.1918237    -0.8443352
H           1.4991317    -1.9861862     0.4387537
H           3.5423150    -2.0514418    -1.8481633
C           5.5780034     1.3474391     0.8112299
H           6.2449747     2.0607233     1.2876643
C           4.5850330     0.7110300     1.5542562
H           4.4736841     0.9258342     2.6137253
C           3.7286061    -0.2087058     0.9427851
H           2.9670554    -0.6988735     1.5414535
C           3.8537183    -0.5038504    -0.4190507
C           4.8562914     0.1430074    -1.1557060
H           4.9599016    -0.0709372    -2.2172155
C           5.7118020     1.0600954    -0.5496291
H           6.4838109     1.5489236    -1.1377214
C           0.3494796     0.5382418    -2.7150545
H          -0.4314523     1.2802411    -2.8169107
C           1.0912585     0.2428377    -1.5981176
H           1.1031273     0.6537044    -0.6000696
N           1.9605051    -0.7601958    -1.9842871
C           1.6899190    -1.0144575    -3.3021267
H           2.2324582    -1.7697972    -3.8571095
N           0.7287484    -0.2516907    -3.7772871
25
093_C11H12N2_21-0-12-10 (120,) energy =    -535.8916389
C           2.8989846    -1.4903725    -1.0806612
C           2.1108467    -2.4218148    -0.1513355
H           2.7891794    -3.0107781     0.4745046
H           1.5067688    -3.1099293    -0.7496353
H           1.4336859    -1.8610549     0.5007320
H           3.5171599    -2.1172322    -1.7353984
C           5.5951984     1.3358704     0.8156958
H           6.2767402     2.0446536     1.2780722
C           4.7473612     0.5610455     1.6042081
H           4.7630739     0.6623637     2.6861139
C           3.8707629    -0.3519515     1.0096658
H           3.2224751    -0.9481951     1.6436638
C           3.8309842    -0.5011346    -0.3801111
C           4.6897097     0.2847959    -1.1637142
H           4.6622986     0.1862221    -2.2463819
C           5.5635671     1.1945686    -0.5747348
H           6.2206747     1.7935759    -1.1994408
C           0.4348040     0.5134474    -2.8436074
H          -0.3242036     1.2669204    -3.0077505
C           1.1284241     0.2534949    -1.6876689
H           1.1141794     0.7078024    -0.7085143
N           1.9867239    -0.7855574    -1.9955344
C           1.7577208    -1.0945488    -3.3096651
H           2.3015345    -1.8870654    -3.8087520
N           0.8332014    -0.3329717    -3.8542887
25
093_C11H12N2_21-0-12-10 (135,) energy =    -535.8915882
C           2.8539641    -1.4885174    -1.0390633
C           2.0015251    -2.3432515    -0.0920341
H           2.6339556    -2.9697345     0.5448349
H           1.3516389    -2.9991377    -0.6782259
H           1.3692990    -1.7219235     0.5504725
H           3.4721995    -2.1717779    -1.6360115
C           5.6140007     1.3066435     0.8188994
H           6.3144608     2.0027987     1.2721174
C           4.9086359     0.4036770     1.6113389
H           5.0546921     0.3913479     2.6881766
C           4.0066805    -0.4913520     1.0280871
H           3.4690118    -1.1844967     1.6666213
C           3.7959995    -0.4946396    -0.3548271
C           4.5134708     0.4186523    -1.1429994
H           4.3555197     0.4350094    -2.2180990
C           5.4125303     1.3106966    -0.5640726
H           5.9558626     2.0111370    -1.1926605
C           0.5055247     0.4695017    -2.9972356
H          -0.2408508     1.2187236    -3.2260614
C           1.1271929     0.2381437    -1.7952693
H           1.0536709     0.7167851    -0.8304475
N           2.0003389    -0.8092521    -2.0241755
C           1.8491112    -1.1523045    -3.3411598
H           2.4192952    -1.9585013    -3.7859066
N           0.9615524    -0.4034902    -3.9598946
25
093_C11H12N2_21-0-12-10 (150,) energy =    -535.8912716
C           2.8213590    -1.4843127    -0.9493390
C           1.9201998    -2.2380874     0.0407327
H           2.5117719    -2.8745710     0.7053042
H           1.2278004    -2.8791671    -0.5122260
H           1.3358805    -1.5467867     0.6564488
H           3.4224295    -2.2325098    -1.4833446
C           5.6647942     1.3062143     0.7944889
H           6.3858492     1.9978545     1.2215640
C           5.1253588     0.2829823     1.5723477
H           5.4231657     0.1715477     2.6115891
C           4.1957167    -0.6037048     1.0238992
H           3.7905554    -1.3906984     1.6515032
C           3.7878972    -0.4816198    -0.3104859
C           4.3418262     0.5486320    -1.0848367
H           4.0379370     0.6626005    -2.1209709
C           5.2689344     1.4345937    -0.5382800
H           5.6807831     2.2281446    -1.1560617
C           0.5614544     0.3791915    -3.0934442
H          -0.1881866     1.1030262    -3.3848106
C           1.0898495     0.1686921    -1.8439132
H           0.9207182     0.6456324    -0.8903685
N           2.0081553    -0.8541255    -1.9960951
C           1.9768314    -1.2016062    -3.3200876
H           2.6054168    -1.9908366    -3.7134540
N           1.1204153    -0.4811475    -4.0120845
25
093_C11H12N2_21-0-12-10 (165,) energy =    -535.8910245
C           2.7496359    -1.4830127    -0.9001955
C           1.7912242    -2.1067509     0.1286202
H           2.3357841    -2.7136581     0.8568747
H           1.0734046    -2.7550455    -0.3823234
H           1.2387312    -1.3365481     0.6758716
H           3.3153161    -2.3014958    -1.3648503
C           5.6928521     1.2539025     0.7694801
H           6.4354664     1.9305466     1.1833915
C           5.3124164     0.1106897     1.4728830
H           5.7583309    -0.1102264     2.4390894
C           4.3554972    -0.7551702     0.9425514
H           4.0806099    -1.6399504     1.5085786
C           3.7593150    -0.4964834    -0.3003323
C           4.1561396     0.6499093    -1.0016775
H           3.7121688     0.8714961    -1.9664383
C           5.1112681     1.5180580    -0.4703744
H           5.3988894     2.4036717    -1.0307473
C           0.6060870     0.3110621    -3.2158291
H          -0.1426517     1.0091350    -3.5663713
C           1.0188789     0.0958234    -1.9242082
H           0.7355106     0.5460086    -0.9850436
N           1.9852717    -0.8911179    -2.0020595