25
093_C11H12N2_12-0-21-19 (-165,) energy =    -535.8904911
C           2.8444968    -1.4170411    -1.0446970
C           2.3328337    -2.3312286     0.0802151
H           3.1835452    -2.8368209     0.5469516
H           1.6532379    -3.1001533    -0.2995377
H           1.8099900    -1.7547036     0.8495946
H           3.3030766    -2.0528805    -1.8135529
C           5.9435525     1.2053809     0.4656201
H           6.7256808     1.8533393     0.8516742
C           4.6323218     1.3339561     0.9316346
H           4.3914455     2.0834532     1.6806401
C           3.6279652     0.5032392     0.4377810
H           2.6092795     0.6167787     0.7989074
C           3.9178457    -0.4658243    -0.5339551
C           5.2322179    -0.5829078    -0.9972632
H           5.4691682    -1.3271487    -1.7543210
C           6.2416499     0.2447192    -0.5001063
H           7.2571304     0.1401206    -0.8723337
C          -0.1483629    -0.2288120    -2.7329345
H          -1.1500414    -0.2515719    -3.1419822
C           0.4795148    -1.1967253    -1.9916824
H           0.1547069    -2.1693099    -1.6579136
N           1.7312674    -0.6867880    -1.6848329
C           1.7891700     0.5473208    -2.2840632
H           2.6678737     1.1718723    -2.2193290
N           0.6747796     0.8593610    -2.9106884
25
093_C11H12N2_12-0-21-19 (-150,) energy =    -535.8908277
C           2.8810980    -1.4124412    -1.1121928
C           2.4087323    -2.3952459    -0.0300802
H           3.2813745    -2.8922434     0.4034851
H           1.7530299    -3.1676501    -0.4440241
H           1.8779731    -1.8741682     0.7730156
H           3.3517193    -1.9989205    -1.9125123
C           5.9007274     1.2213272     0.5319034
H           6.6621400     1.8720410     0.9531343
C           4.5623202     1.3756857     0.9031645
H           4.2798249     2.1478227     1.6136997
C           3.5837588     0.5433636     0.3624136
H           2.5431809     0.6771312     0.6459326
C           3.9287907    -0.4541467    -0.5603961
C           5.2699170    -0.5975076    -0.9301689
H           5.5488239    -1.3634252    -1.6506994
C           6.2528109     0.2328314    -0.3865915
H           7.2898026     0.1097417    -0.6870968
C          -0.2052050    -0.1519089    -2.5725357
H          -1.2503922    -0.1143286    -2.8503467
C           0.4226411    -1.0826062    -1.7845756
H           0.0536573    -1.9584792    -1.2759875
N           1.7466081    -0.6802588    -1.7069279
C           1.8385608     0.4552231    -2.4724847
H           2.7738992     0.9827528    -2.5959245
N           0.6854581     0.8069481    -2.9991960
25
093_C11H12N2_12-0-21-19 (-135,) energy =    -535.8910739
C           2.9155636    -1.4241866    -1.1779922
C           2.4623497    -2.4613278    -0.1411768
H           3.3433502    -2.9763974     0.2522427
H           1.8002523    -3.2111108    -0.5860950
H           1.9470462    -1.9843644     0.6987259
H           3.4041791    -1.9671312    -1.9974539
C           5.8499707     1.2244318     0.5924906
H           6.5893924     1.8796064     1.0448622
C           4.4928921     1.3945147     0.8789453
H           4.1738761     2.1834932     1.5546915
C           3.5422211     0.5577417     0.2964769
H           2.4869605     0.7038075     0.5116412
C           3.9353814    -0.4606754    -0.5822375
C           5.2952082    -0.6204971    -0.8676538
H           5.6113006    -1.4027745    -1.5547799
C           6.2495425     0.2149023    -0.2829643
H           7.3017873     0.0800991    -0.5185291
C          -0.2237308    -0.0762810    -2.4449085
H          -1.2883042     0.0317189    -2.6057488
C           0.4167456    -0.9732043    -1.6276693
H           0.0426876    -1.7504894    -0.9813828
N           1.7689983    -0.7002618    -1.7564536
C           1.8600583     0.3340889    -2.6522277
H           2.8151888     0.7532643    -2.9386526
N           0.6843956     0.7381116    -3.0827508
25
093_C11H12N2_12-0-21-19 (-120,) energy =    -535.8913600
C           2.9412577    -1.4201542    -1.2316968
C           2.5210880    -2.5204399    -0.2478587
H           3.4139026    -3.0549327     0.0888799
H           1.8451538    -3.2407308    -0.7202153
H           2.0327807    -2.0981883     0.6362869
H           3.4431127    -1.9072813    -2.0771881
C           5.7958137     1.2330639     0.6603995
H           6.5153132     1.8894380     1.1422158
C           4.4264243     1.4308103     0.8529537
H           4.0772414     2.2428921     1.4850380
C           3.5011478     0.5926792     0.2316101
H           2.4367256     0.7600377     0.3734710
C           3.9335757    -0.4542372    -0.5922031
C           5.3065322    -0.6421398    -0.7843911
H           5.6536344    -1.4467322    -1.4298421
C           6.2344594     0.1940379    -0.1607846
H           7.2974070     0.0378388    -0.3242307
C          -0.2395953     0.0145791    -2.2814567
H          -1.3058672     0.1929466    -2.3260149
C           0.4346564    -0.8520369    -1.4578738
H           0.0932806    -1.5329671    -0.6950907
N           1.7736583    -0.7135602    -1.7840208
C           1.8235709     0.2220532    -2.7839375
H           2.7622697     0.5287365    -3.2265737
N           0.6345634     0.6820670    -3.1089182
25
093_C11H12N2_12-0-21-19 (-105,) energy =    -535.8917069
C           2.9766201    -1.4066242    -1.3001029
C           2.5780256    -2.5699802    -0.3808203
H           3.4772325    -3.1205312    -0.0897573
H           1.8957170    -3.2592039    -0.8890156
H           2.1028701    -2.2080315     0.5364709
H           3.4945411    -1.8333473    -2.1676063
C           5.7566247     1.2205863     0.7380594
H           6.4582773     1.8698875     1.2545411
C           4.3831154     1.4520499     0.8354125
H           4.0117930     2.2841281     1.4276662
C           3.4804426     0.6228346     0.1688745
H           2.4136980     0.8179969     0.2373242
C           3.9410184    -0.4489623    -0.6049916
C           5.3196006    -0.6707404    -0.7024276
H           5.6902922    -1.4944814    -1.3097574
C           6.2235934     0.1559318    -0.0340011
H           7.2910457    -0.0268640    -0.1243361
C          -0.2040923     0.1274371    -2.1859818
H          -1.2535967     0.3859701    -2.1365711
C           0.4993451    -0.7005602    -1.3464846
H           0.2026227    -1.2711184    -0.4809785
N           1.7950740    -0.7147843    -1.8348650
C           1.7945349     0.1050681    -2.9319079
H           2.6940989     0.2817161    -3.5075590
N           0.6114281     0.6264373    -3.1758566
25
093_C11H12N2_12-0-21-19 (-90,) energy =    -535.8918598
C           2.9942226    -1.3677810    -1.3666277
C           2.6480736    -2.6091132    -0.5284878
H           3.5666455    -3.1472915    -0.2771365
H           1.9868624    -3.2823327    -1.0835555
H           2.1635232    -2.3313161     0.4128013
H           3.5204670    -1.7115784    -2.2651309
C           5.7114443     1.2164034     0.8149531
H           6.3998453     1.8523688     1.3647715
C           4.3504345     1.5206522     0.7777127
H           3.9740038     2.3974045     1.2979630
C           3.4636606     0.7078380     0.0683363
H           2.4084502     0.9621964     0.0348167
C           3.9289584    -0.4215954    -0.6134283
C           5.2985156    -0.7155274    -0.5771874
H           5.6764075    -1.5837408    -1.1142587
C           6.1846871     0.0938084     0.1327348
H           7.2442993    -0.1473363     0.1455935
C          -0.2092209     0.2029771    -2.0650615
H          -1.2326224     0.5240163    -1.9224041
C           0.5607696    -0.5564321    -1.2188392
H           0.3545926    -1.0025487    -0.2586126
N           1.7803798    -0.7064968    -1.8573869
C           1.6749282    -0.0229674    -3.0392297
H           2.5000499     0.0291506    -3.7382245
N           0.4930859     0.5314825    -3.2020733
25
093_C11H12N2_12-0-21-19 (-75,) energy =    -535.8914348
C           3.0340802    -1.3124121    -1.4542203
C           2.7623114    -2.6520426    -0.7456516
H           3.7031022    -3.1690519    -0.5370117
H           2.1407739    -3.2969110    -1.3747630
H           2.2519441    -2.4964917     0.2100002
H           3.5557090    -1.5320467    -2.3937629
C           5.6799690     1.2100838     0.8951558
H           6.3524629     1.8299107     1.4818432
C           4.3748514     1.6295741     0.6435250
H           4.0240887     2.5821436     1.0316753
C           3.5082725     0.8357377    -0.1130209
H           2.4991784     1.1826058    -0.3092581
C           3.9351396    -0.3942721    -0.6232554
C           5.2545135    -0.8022192    -0.3745908
H           5.6139135    -1.7454433    -0.7808325
C           6.1195445    -0.0108840     0.3784648
H           7.1381983    -0.3450161     0.5568714
C          -0.2240269     0.2282437    -1.9032848
H          -1.2159693     0.5870987    -1.6622415
C           0.6545189    -0.4354743    -1.0828662
H           0.5869702    -0.7517205    -0.0533265
N           1.7728703    -0.6879102    -1.8597604
C           1.5064873    -0.1516541    -3.0913619
H           2.2267852    -0.2029348    -3.8981329
N           0.3148493     0.4011378    -3.1581565
25
093_C11H12N2_12-0-21-19 (-60,) energy =    -535.8916245
C           3.0560984    -1.1539121    -1.7209138
C           3.0038892    -2.6696769    -1.4936543
H           4.0061264    -3.1060486    -1.5526522
H           2.3805632    -3.1332057    -2.2636106
H           2.5747844    -2.9166426    -0.5173604
H           3.4720939    -0.9827634    -2.7219350
C           5.5056324     1.1516298     1.0275031
H           6.1195162     1.7387753     1.7050669
C           4.8266892     1.7732010    -0.0245081
H           4.9097244     2.8470746    -0.1687250
C           4.0405962     1.0186502    -0.8910941
H           3.5066477     1.5105316    -1.7004768
C           3.9153820    -0.3694666    -0.7270924
C           4.5986254    -0.9812662     0.3285288
H           4.5243741    -2.0530271     0.4815236
C           5.3886618    -0.2256994     1.2005927
H           5.9105987    -0.7201621     2.0155396
C          -0.3576335     0.0188773    -1.3217201
H          -1.2939678     0.2550323    -0.8335755
C           0.7861193    -0.4848816    -0.7534517
H           1.0439525    -0.7441845     0.2623004
N           1.6965880    -0.5967687    -1.7876584
C           1.0501071    -0.1648617    -2.9147966
H           1.5398019    -0.1554022    -3.8807156
N          -0.1858554     0.2168037    -2.6736504
25
093_C11H12N2_12-0-21-19 (-45,) energy =    -535.8914341
C           3.0549950    -1.1200799    -1.8126968
C           3.0493205    -2.6502211    -1.6941382
H           4.0662823    -3.0502010    -1.7629501
H           2.4536022    -3.0788604    -2.5052553
H           2.6074348    -2.9758327    -0.7471303
H           3.4450986    -0.8619099    -2.8049970
C           5.4851130     1.0397833     1.0636458
H           6.0936975     1.5914570     1.7749526
C           4.9090669     1.6965545    -0.0276431
H           5.0675728     2.7621936    -0.1694435
C           4.1312400     0.9858954    -0.9377018
H           3.6788995     1.5035811    -1.7803719
C           3.9114799    -0.3912182    -0.7788903
C           4.4927571    -1.0383808     0.3159753
H           4.3461362    -2.1033126     0.4645129
C           5.2745531    -0.3271724     1.2316340
H           5.7180033    -0.8481520     2.0759511
C          -0.3335915     0.0538151    -1.2122180
H          -1.2173433     0.3546479    -0.6652240
C           0.8807497    -0.3355239    -0.7037184
H           1.2551844    -0.4291892     0.3040752
N           1.6754985    -0.6024825    -1.8032113
C           0.8980154    -0.3618236    -2.9044888
H           1.2807538    -0.4931576    -3.9090839
N          -0.3159715     0.0359646    -2.5891751
25
093_C11H12N2_12-0-21-19 (-30,) energy =    -535.8906903
C           3.0944283    -1.0611102    -1.8347205
C           3.1964494    -2.5929420    -1.8081378
H           4.2416753    -2.9125711    -1.8753037
H           2.6490225    -3.0175441    -2.6549000
H           2.7602319    -3.0056679    -0.8932719
H           3.4480166    -0.7157096    -2.8135151
C           5.4487856     1.0571428     1.1297298
H           6.0386468     1.5981075     1.8646220
C           5.0383195     1.6901245    -0.0461977
H           5.3075764     2.7264929    -0.2310624
C           4.2853844     0.9914638    -0.9874281
H           3.9642920     1.4893902    -1.8995916
C           3.9271604    -0.3477457    -0.7744497
C           4.3443482    -0.9721325     0.4063528
H           4.0873312    -2.0093100     0.5968149
C           5.0997944    -0.2741656     1.3524971
H           5.4160871    -0.7761343     2.2629341
C          -0.3146411    -0.0016196    -1.1069454
H          -1.1688439     0.3403555    -0.5376473
C           0.9608899    -0.2329172    -0.6546861
H           1.4188984    -0.1393883     0.3172771
N           1.6789723    -0.6444440    -1.7626395
C           0.8003395    -0.6320155    -2.8132462
H           1.1070384    -0.9075057    -3.8146946
N          -0.4080362    -0.2505458    -2.4579213
25
093_C11H12N2_12-0-21-19 (-15,) energy =    -535.8899639
C           3.0656199    -0.9931280    -1.8915172
C           3.2816300    -2.5112780    -1.9957538
H           4.3457983    -2.7353010    -2.1228262
H           2.7382144    -2.9163408    -2.8547590
H           2.9189047    -3.0278517    -1.1021690
H           3.3593852    -0.5437266    -2.8474448
C           5.4545181     0.9647426     1.1512055
H           6.0557894     1.4616659     1.9076042
C           5.2437845     1.5707046    -0.0882215
H           5.6798963     2.5424201    -0.3032905
C           4.4733030     0.9272268    -1.0567529
H           4.3104421     1.4050873    -2.0201240
C           3.9027383    -0.3276578    -0.8075250
C           4.1220985    -0.9270455     0.4401640
H           3.6920408    -1.8994033     0.6612099
C           4.8907391    -0.2851575     1.4123879
H           5.0505668    -0.7649172     2.3742260
C          -0.3547892    -0.0805025    -1.0030394
H          -1.1861109     0.2831218    -0.4136327
C           0.9644582    -0.1675022    -0.6331112
H           1.4838910     0.0933268     0.2746039
N           1.6255935    -0.6915067    -1.7295621
C           0.6703753    -0.8803110    -2.6937658
H           0.9170636    -1.2741346    -3.6716244
N          -0.5322625    -0.5262975    -2.2930691
25
093_C11H12N2_12-0-21-19 (0,) energy =    -535.8897188
C           3.0410362    -0.9018572    -1.9151144
C           3.3582271    -2.3928407    -2.1176085
H           4.4296796    -2.5223322    -2.3006137
H           2.8137151    -2.7988704    -2.9753184
H           3.0819854    -2.9796576    -1.2365598
H           3.2833869    -0.3745647    -2.8459229
C           5.4763432     0.9053283     1.1809000
H           6.0940589     1.3585912     1.9513485
C           5.3868936     1.4905681    -0.0819769
H           5.9341433     2.4031398    -0.3019531
C           4.5917105     0.9042279    -1.0683454
H           4.5238418     1.3668112    -2.0503153
C           3.8793251    -0.2729713    -0.8120802
C           3.9778432    -0.8536695     0.4609393
H           3.4293006    -1.7639630     0.6863081
C           4.7676285    -0.2679784     1.4498585
H           4.8310777    -0.7299148     2.4313851
C          -0.3864410    -0.1057023    -0.9414492
H          -1.2076666     0.2918837    -0.3598710
C           0.9532250    -0.0559418    -0.6474734
H           1.4996339     0.3721294     0.1766301
N           1.5903011    -0.7076955    -1.6894341
C           0.5983110    -1.0985980    -2.5518400
H           0.8132129    -1.6227347    -3.4736650
N          -0.6021935    -0.7576734    -2.1339174
25
093_C11H12N2_12-0-21-19 (15,) energy =    -535.8899748
C           3.0118609    -0.8306846    -1.9273878
C           3.4011790    -2.2904292    -2.2130495
H           4.4761737    -2.3469012    -2.4097622
H           2.8778021    -2.6837539    -3.0894715
H           3.1706023    -2.9346960    -1.3592879
H           3.2135695    -0.2433361    -2.8325037
C           5.4726020     0.8521818     1.2161431
H           6.0991291     1.2704883     1.9991646
C           5.4525001     1.4322129    -0.0517766
H           6.0626619     2.3061265    -0.2631277
C           4.6438659     0.8920965    -1.0543109
H           4.6295268     1.3508831    -2.0403601
C           3.8506328    -0.2334030    -0.8072736
C           3.8784754    -0.8095620     0.4715560
H           3.2607223    -1.6771954     0.6870435
C           4.6807196    -0.2696173     1.4755334
H           4.6886816    -0.7255638     2.4618726
C          -0.4087411    -0.0894672    -0.9051420
H          -1.2228052     0.3611306    -0.3528341
C           0.9379317     0.0803763    -0.7060958
H           1.4980105     0.6740010    -0.0024491
N           1.5623385    -0.7163616    -1.6514855
C           0.5531486    -1.3073030    -2.3693711
H           0.7475855    -1.9798694    -3.1929844
N          -0.6430954    -0.9573067    -1.9468951
25
093_C11H12N2_12-0-21-19 (30,) energy =    -535.8906950
C           2.9963722    -0.7577209    -1.9454616
C           3.4448365    -2.1776465    -2.3243352
H           4.5200720    -2.1695931    -2.5252908
H           2.9388903    -2.5362584    -3.2258638
H           3.2518023    -2.8838696    -1.5108295
H           3.1567134    -0.1111969    -2.8186908
C           5.4731538     0.7906831     1.2523379
H           6.1049811     1.1727339     2.0495151
C           5.5276264     1.3597034    -0.0195213
H           6.2010676     2.1887377    -0.2193952
C           4.7105330     0.8682402    -1.0404222
H           4.7536609     1.3185510    -2.0297210
C           3.8354849    -0.1971777    -0.8058370
C           3.7873925    -0.7626195     0.4768028
H           3.1018551    -1.5814034     0.6786383
C           4.5982436    -0.2711465     1.4982800
H           4.5472538    -0.7166359     2.4881342
C          -0.4215793    -0.0907330    -0.8932675
H          -1.2415872     0.4037117    -0.3893180
C           0.9151284     0.2061934    -0.8172376
H           1.4629455     0.9613786    -0.2767493
N           1.5542193    -0.7172997    -1.6281420
C           0.5618476    -1.5098706    -2.1486994
H           0.7670552    -2.3240339    -2.8282413
N          -0.6358767    -1.1655278    -1.7256333
25
093_C11H12N2_12-0-21-19 (45,) energy =    -535.8915239
C           2.9788767    -0.6926032    -1.9555790
C           3.4692860    -2.0677141    -2.4313980
H           4.5336757    -1.9987684    -2.6726438
H           2.9389537    -2.3958625    -3.3310767
H           3.3460955    -2.8253545    -1.6509761
H           3.0939850     0.0090447    -2.7925112
C           5.4773843     0.7248316     1.2856970
H           6.1144741     1.0731757     2.0940613
C           5.5951717     1.2792101     0.0113816
H           6.3232201     2.0632157    -0.1787909
C           4.7703543     0.8325853    -1.0235371
H           4.8625107     1.2717242    -2.0147794
C           3.8244365    -0.1729985    -0.7997212
C           3.7114643    -0.7232393     0.4844977
H           2.9684951    -1.4930787     0.6756848
C           4.5312137    -0.2766471     1.5196603
H           4.4299172    -0.7089719     2.5115040
C          -0.4440574    -0.1206163    -0.8930434
H          -1.2857503     0.3998660    -0.4554103
C           0.8600631     0.2968798    -0.9649505
H           1.3606117     1.1905930    -0.6254975
N           1.5475917    -0.7201020    -1.6053007
C           0.6158100    -1.6888106    -1.8822770
H           0.8694468    -2.6098889    -2.3856959
N          -0.5900126    -1.3634368    -1.4665937
25
093_C11H12N2_12-0-21-19 (60,) energy =    -535.8920405
C           2.2355525    -1.1958119    -0.4823141
C           1.1894381    -0.5976544     0.4687783
H           1.5448999    -0.7040895     1.4974315
H           0.2278913    -1.1140179     0.3807499
H           1.0401832     0.4697375     0.2771399
H           2.3500730    -2.2563766    -0.2244334
C           6.0613109     0.7412523     0.1315452
H           7.0176481     1.2296084     0.2976848
C           5.7877988    -0.4874412     0.7330647
H           6.5303329    -0.9625717     1.3685879
C           4.5606387    -1.1153183     0.5113635
H           4.3541194    -2.0767090     0.9777757
C           3.5929696    -0.5228246    -0.3069601
C           3.8762834     0.7095144    -0.9092182
H           3.1393616     1.1707624    -1.5613927
C           5.1025862     1.3367799    -0.6917476
H           5.3114060     2.2904100    -1.1692016
C           1.7020415    -1.4322686    -4.0589097
H           1.9010459    -1.7068015    -5.0864514
C           2.4606681    -1.7074309    -2.9501831
H           3.4008955    -2.2210574    -2.8155426
N           1.7822511    -1.1503221    -1.8807778
C           0.6570062    -0.5689323    -2.4076906
H          -0.0709261    -0.0564312    -1.7962038
N           0.5755368    -0.7206552    -3.7130353
25
093_C11H12N2_12-0-21-19 (75,) energy =    -535.8920670
C           2.2856595    -1.2514344    -0.5292902
C           1.2173480    -0.7561910     0.4576995
H           1.5631502    -0.9373799     1.4793731
H           0.2689753    -1.2831178     0.3102336
H           1.0468603     0.3201789     0.3557753
H           2.4489868    -2.3178581    -0.3335715
C           6.0268419     0.8200778     0.1796918
H           6.9616966     1.3402423     0.3698400
C           5.7597632    -0.3964479     0.8091452
H           6.4866066    -0.8305323     1.4905701
C           4.5609911    -1.0645878     0.5559191
H           4.3614027    -2.0166935     1.0442600
C           3.6130892    -0.5260540    -0.3219702
C           3.8899339     0.6929759    -0.9517134
H           3.1721795     1.1137615    -1.6506292
C           5.0892498     1.3608630    -0.7024179
H           5.2929519     2.3037319    -1.2029086
C           1.6434227    -1.4653846    -4.0874541
H           1.7592092    -1.8020930    -5.1091785
C           2.3359025    -1.8797248    -2.9782532
H           3.1366857    -2.5908562    -2.8381245
N           1.8127679    -1.1639817    -1.9171597
C           0.8397506    -0.3562329    -2.4476992
H           0.2504622     0.3152837    -1.8401697
N           0.7088267    -0.5135007    -3.7488092
25
093_C11H12N2_12-0-21-19 (90,) energy =    -535.8915363
C           2.3272306    -1.2499050    -0.5615020
C           1.2589842    -0.8594768     0.4745415
H           1.6299772    -1.0787563     1.4799988
H           0.3333467    -1.4203692     0.3100997
H           1.0366440     0.2113598     0.4347838
H           2.5345132    -2.3186443    -0.4368879
C           6.0118522     0.8995205     0.2306418
H           6.9326427     1.4354450     0.4441142
C           5.7041612    -0.2727122     0.9238196
H           6.3857227    -0.6568175     1.6781697
C           4.5243184    -0.9602680     0.6412525
H           4.2954817    -1.8780857     1.1800470
C           3.6320786    -0.4878508    -0.3303474
C           3.9505332     0.6845832    -1.0235386
H           3.2823894     1.0558807    -1.7948377
C           5.1328648     1.3729068    -0.7439555
H           5.3675570     2.2796445    -1.2950975
C           1.4356039    -1.4406483    -4.0680130
H           1.4171046    -1.8231439    -5.0798976
C           2.1170510    -1.9416060    -2.9878830
H           2.7812728    -2.7849115    -2.8679280
N           1.8108085    -1.1086123    -1.9278630
C           0.9608607    -0.1557293    -2.4281582
H           0.5454041     0.6291707    -1.8120994
N           0.7139509    -0.3246153    -3.7108541
25
093_C11H12N2_12-0-21-19 (105,) energy =    -535.8906663
C           2.4056705    -1.2919881    -0.6155124
C           1.3387903    -1.0562514     0.4704291
H           1.7386508    -1.3226644     1.4531399
H           0.4516785    -1.6668212     0.2746415
H           1.0400855    -0.0042525     0.5101401
H           2.6773706    -2.3531191    -0.5901426
C           6.0076115     0.9691980     0.2700372
H           6.9082637     1.5289554     0.5069130
C           5.6344002    -0.1274239     1.0503781
H           6.2457813    -0.4295187     1.8965880
C           4.4796230    -0.8432891     0.7405270
H           4.2042024    -1.7021071     1.3496820
C           3.6739038    -0.4775436    -0.3480555
C           4.0616306     0.6147687    -1.1299993
H           3.4687839     0.9035120    -1.9916119
C           5.2193024     1.3336439    -0.8203607
H           5.5044624     2.1790213    -1.4408797
C           1.2029708    -1.3735001    -4.0336820
H           1.0341335    -1.7574692    -5.0309263
C           1.9122542    -1.9544608    -3.0132234
H           2.4615633    -2.8815745    -2.9389950
N           1.8356077    -1.0745339    -1.9494100
C           1.0734712    -0.0204907    -2.3846898
H           0.8353467     0.8208152    -1.7485655
N           0.6810461    -0.1644777    -3.6335538
25
093_C11H12N2_12-0-21-19 (120,) energy =    -535.8906045
C           2.5344912    -1.3663508    -0.6097503
C           1.6371183    -1.6707438     0.5962810
H           2.1936921    -2.2093309     1.3697858
H           0.7986671    -2.2968622     0.2782603
H           1.2294414    -0.7554916     1.0373721
H           2.9033325    -2.3241792    -0.9964404
C           6.0529941     1.0705096     0.1372395
H           6.9393700     1.6738751     0.3131073
C           5.2256757     0.7116303     1.1989688
H           5.4619081     1.0345635     2.2093927
C           4.0842314    -0.0636302     0.9724395
H           3.4553221    -0.3306824     1.8154142
C           3.7550518    -0.4896498    -0.3183151
C           4.5956327    -0.1213789    -1.3802571
H           4.3468274    -0.4337461    -2.3913484
C           5.7328154     0.6502225    -1.1568481
H           6.3691223     0.9263170    -1.9933785
C           0.6751507    -0.5286769    -3.6164796
H           0.2498197    -0.6465581    -4.6043205
C           1.4479009    -1.4217284    -2.9166764
H           1.8075288    -2.4150306    -3.1430965
N           1.7365878    -0.8051378    -1.7130175
C           1.1300697     0.4212205    -1.7568260
H           1.2104273     1.1290023    -0.9427182
N           0.4813980     0.6214411    -2.8855281
25
093_C11H12N2_12-0-21-19 (135,) energy =    -535.8908749
C           2.6035062    -1.3668907    -0.6284311
C           1.7281403    -1.7500240     0.5714824
H           2.3144827    -2.2814390     1.3282133
H           0.9184975    -2.4060784     0.2389420
H           1.2760277    -0.8675226     1.0352398
H           2.9914381    -2.2937221    -1.0682121
C           6.0678533     1.1184713     0.1911781
H           6.9410979     1.7355454     0.3842926
C           5.1699237     0.8318752     1.2169286
H           5.3383084     1.2252791     2.2158384
C           4.0458885     0.0376740     0.9687606
H           3.3610112    -0.1749853     1.7832005
C           3.8060569    -0.4788987    -0.3081518
C           4.7177936    -0.1835190    -1.3335910
H           4.5381253    -0.5709255    -2.3336192
C           5.8375086     0.6067086    -1.0892643
H           6.5311360     0.8242113    -1.8969823
C           0.4873522    -0.4928127    -3.4469874
H          -0.0803675    -0.6231764    -4.3588363
C           1.2527198    -1.4220499    -2.7879296
H           1.4737561    -2.4613785    -2.9836235
N           1.7801501    -0.7640325    -1.6918465
C           1.3002591     0.5171604    -1.7477929
H           1.5687091     1.2601232    -1.0091238
N           0.5225598     0.7174104    -2.7917725
25
093_C11H12N2_12-0-21-19 (150,) energy =    -535.8908301
C           2.6688664    -1.3844035    -0.6957663
C           1.8151186    -1.8494310     0.4912385
H           2.4309065    -2.3688785     1.2329286
H           1.0397678    -2.5376436     0.1420563
H           1.3153483    -1.0056229     0.9772589
H           3.0842675    -2.2758475    -1.1816672
C           6.0564738     1.1648014     0.2313962
H           6.9108773     1.7990386     0.4513462
C           5.0767242     0.9469629     1.1980164
H           5.1625063     1.4115144     2.1766187
C           3.9778481     0.1297095     0.9160725
H           3.2284647    -0.0293881     1.6847302
C           3.8452409    -0.4793731    -0.3357524
C           4.8386843    -0.2529874    -1.3006638
H           4.7444195    -0.7158452    -2.2803269
C           5.9339941     0.5607062    -1.0230892
H           6.6930711     0.7226860    -1.7835546
C           0.3323360    -0.4564950    -3.3118682
H          -0.3620256    -0.5850220    -4.1317971
C           1.0732168    -1.4193272    -2.6740168
H           1.1506721    -2.4892157    -2.8037418
N           1.8185596    -0.7494362    -1.7204759
C           1.4733615     0.5722678    -1.8259087
H           1.9155220     1.3295964    -1.1939510
N           0.5881610     0.7860910    -2.7774124
25
093_C11H12N2_12-0-21-19 (165,) energy =    -535.8904070
C           2.7149726    -1.4471660    -0.8347883
C           1.9600189    -2.1104850     0.3273842
H           2.6607648    -2.6323439     0.9872210
H           1.2366744    -2.8375350    -0.0538113
H           1.4070727    -1.3724382     0.9161610
H           3.1644766    -2.2417128    -1.4425658
C           5.9761567     1.1539363     0.3506765
H           6.7987311     1.8020657     0.6403081
C           4.8151486     1.1061529     1.1233332
H           4.7293728     1.7184830     2.0168960
C           3.7589403     0.2708338     0.7549016
H           2.8638388     0.2461860     1.3691245
C           3.8468324    -0.5270230    -0.3932809
C           5.0174332    -0.4692336    -1.1609835
H           5.0985504    -1.0820247    -2.0559478
C           6.0752578     0.3624992    -0.7949027
H           6.9756766     0.3904047    -1.4024531
C           0.1101450    -0.3619793    -3.1187019
H          -0.7101974    -0.4499755    -3.8190535
C           0.8219116    -1.3715839    -2.5215916
H           0.7587085    -2.4478703    -2.5897576
N           1.7690782    -0.7472528    -1.7290827