18
064_C5H8N4O_2-0-13-12 (-165,) energy =    -489.5901662
N           3.9014435     1.2630324    -1.2694529
H           4.0400564     2.1498088    -1.7355492
C           3.6935705     0.1921892    -2.1319360
N           3.3377443    -1.0043101    -1.5142542
H           2.7513641    -0.8931765    -0.6933310
C           2.9562556    -2.1101275    -2.3913677
H           2.0258129    -1.9148637    -2.9393434
H           2.8381742    -3.0117237    -1.7846276
H           3.7504376    -2.2704174    -3.1215115
O           3.8407939     0.3093078    -3.3381585
C           4.3183156     1.9728318     2.1215967
H           4.3167634     2.6776726     2.9415957
N           3.9902848     2.3757702     0.8405212
C           4.0850217     1.2861143     0.1111124
N           4.4405359     0.1923030     0.8529862
H           4.6698124    -0.7156518     0.4728242
C           4.5998189     0.6351220     2.1612859
H           4.8656288    -0.0388476     2.9610585
18
064_C5H8N4O_2-0-13-12 (-150,) energy =    -489.5900910
N           4.0548184     1.2275071    -1.2912020
H           4.1401604     2.1220235    -1.7547144
C           3.7349082     0.1729935    -2.1438856
N           3.3734100    -1.0113663    -1.5151517
H           2.8794592    -0.8992120    -0.6366565
C           2.8901171    -2.0964752    -2.3651399
H           1.9223815    -1.8713225    -2.8314612
H           2.7978023    -3.0012558    -1.7585299
H           3.6156632    -2.2700722    -3.1607957
O           3.8191624     0.2943879    -3.3559850
C           4.1923760     1.9324710     2.1271715
H           4.0756033     2.6199191     2.9535922
N           3.8977977     2.3209750     0.8340519
C           4.1435902     1.2596680     0.0977020
N           4.5684302     0.1958046     0.8489902
H           4.8902085    -0.6877188     0.4792822
C           4.6024314     0.6278309     2.1685757
H           4.8854380    -0.0298492     2.9760194
18
064_C5H8N4O_2-0-13-12 (-135,) energy =    -489.5897851
N           4.2003005     1.2112660    -1.3221863
H           4.2459490     2.1103177    -1.7833617
C           3.7718393     0.1811430    -2.1663110
N           3.3961467    -0.9901884    -1.5322249
H           3.0049204    -0.8858372    -0.6035413
C           2.8118771    -2.0467965    -2.3513673
H           1.8085309    -1.7936619    -2.7180708
H           2.7579239    -2.9630101    -1.7572333
H           3.4547327    -2.2162499    -3.2160184
O           3.7990506     0.3151300    -3.3797285
C           4.0603220     1.9054184     2.1039407
H           3.8250645     2.5677571     2.9256264
N           3.7988028     2.2737809     0.7983674
C           4.1989284     1.2542846     0.0706835
N           4.6925286     0.2341424     0.8426348
H           5.1250449    -0.6079761     0.4902271
C           4.6034366     0.6501026     2.1630111
H           4.9078032     0.0179082     2.9830749
18
064_C5H8N4O_2-0-13-12 (-120,) energy =    -489.5893492
N           4.3188691     1.1821004    -1.3535142
H           4.3582677     2.0801500    -1.8185840
C           3.7952788     0.1799877    -2.1879146
N           3.3890682    -0.9721317    -1.5480505
H           3.0974192    -0.8780770    -0.5833563
C           2.7125330    -1.9974063    -2.3321560
H           1.6807871    -1.7227005    -2.5889392
H           2.7039846    -2.9312542    -1.7633264
H           3.2646127    -2.1463834    -3.2608464
O           3.7832638     0.3248513    -3.4002375
C           3.9166027     1.8526656     2.0645854
H           3.5595803     2.4738022     2.8745437
N           3.6779770     2.1940586     0.7484537
C           4.2412320     1.2399326     0.0394199
N           4.8187540     0.2845102     0.8369997
H           5.3722781    -0.4940184     0.5085284
C           4.6094094     0.6735389     2.1494803
H           4.9504581     0.0803015     2.9841861
18
064_C5H8N4O_2-0-13-12 (-105,) energy =    -489.5888896
N           4.4268479     1.1381216    -1.3600106
H           4.5037627     2.0286817    -1.8357903
C           3.8383309     0.1653627    -2.1923999
N           3.3662105    -0.9534854    -1.5466041
H           3.1279088    -0.8569302    -0.5683156
C           2.6260523    -1.9484452    -2.3089606
H           1.5872208    -1.6476661    -2.5006826
H           2.6284169    -2.8949178    -1.7609124
H           3.1227610    -2.0869951    -3.2699310
O           3.8331499     0.3078898    -3.4051372
C           3.7751628     1.7584838     2.0372904
H           3.2920288     2.3142528     2.8292233
N           3.5441186     2.0602285     0.7120741
C           4.2817178     1.2091396     0.0299798
N           4.9666338     0.3567344     0.8593874
H           5.6378415    -0.3348697     0.5567704
C           4.6421173     0.7015918     2.1567156
H           5.0383157     0.1709557     3.0091846
18
064_C5H8N4O_2-0-13-12 (-90,) energy =    -489.5889536
N           4.3298258     1.1331182    -1.4083605
H           5.0745352     1.6668977    -1.8403352
C           3.9735407     0.0244807    -2.2059481
N           3.0308340    -0.7874179    -1.6367109
H           2.5074027    -0.4001328    -0.8607600
C           2.4313599    -1.8679833    -2.3996591
H           1.5122821    -1.5551745    -2.9135361
H           2.1975592    -2.7069733    -1.7366553
H           3.1519327    -2.1917017    -3.1516972
O           4.4835733    -0.1472145    -3.3041790
C           3.6206800     1.3242823     2.0289541
H           2.9502080     1.5444749     2.8482597
N           3.2227122     1.4800042     0.7193820
C           4.2631253     1.1273505    -0.0091014
N           5.3262152     0.7698148     0.7831851
H           6.2181118     0.4276642     0.4546782
C           4.9233935     0.8982776     2.0957637
H           5.5835972     0.6884843     2.9238937
18
064_C5H8N4O_2-0-13-12 (-75,) energy =    -489.5909462
N           4.4271708     1.0376381    -1.4154230
H           5.2447708     1.4731497    -1.8247236
C           4.0039472    -0.0540212    -2.2161236
N           2.9806311    -0.7729589    -1.6759036
H           2.5037671    -0.3672272    -0.8782000
C           2.3327513    -1.8320271    -2.4267194
H           1.4285349    -1.4803742    -2.9416887
H           2.0594804    -2.6533029    -1.7564146
H           3.0361825    -2.1966576    -3.1764689
O           4.5365772    -0.2690615    -3.2961925
C           3.6376524     1.1528907     2.0034498
H           2.9196591     1.2511056     2.8058563
N           3.2412824     1.1975009     0.6827789
C           4.3453398     1.0409135    -0.0197073
N           5.4437764     0.9298262     0.7923593
H           6.3904196     0.7476455     0.4912632
C           4.9961922     1.0067813     2.0997807
H           5.6719392     0.9684916     2.9405817
18
064_C5H8N4O_2-0-13-12 (-60,) energy =    -489.5931339
N           4.5784991     0.8877793    -1.4289921
H           5.4487964     1.2290455    -1.8173072
C           4.0718794    -0.1651716    -2.2395922
N           2.9707085    -0.7782812    -1.7342651
H           2.5530553    -0.3757111    -0.9004379
C           2.2724998    -1.8129986    -2.4718551
H           1.2956057    -1.4626947    -2.8288796
H           2.1195280    -2.7000402    -1.8465005
H           2.8844370    -2.0826052    -3.3336631
O           4.6173678    -0.4217331    -3.3050242
C           3.6620552     1.0564381     1.9525130
H           2.9087474     1.0843899     2.7274061
N           3.3099703     0.9614358     0.6198989
C           4.4497588     0.9411046    -0.0422139
N           5.5219651     1.0559989     0.8005057
H           6.4962287     1.0113011     0.5393153
C           5.0199439     1.1362128     2.0925440
H           5.6647338     1.2506600     2.9502031
18
064_C5H8N4O_2-0-13-12 (-45,) energy =    -489.5950148
N           4.6644500     0.7713545    -1.3793438
H           5.5524142     1.0696225    -1.7612689
C           4.0842093    -0.2173978    -2.2206456
N           2.9543863    -0.7861314    -1.7330816
H           2.5903523    -0.4276415    -0.8532351
C           2.2051697    -1.7625039    -2.4992553
H           1.2392317    -1.3585108    -2.8284378
H           2.0223999    -2.6651074    -1.9048378
H           2.7936221    -2.0254801    -3.3792063
O           4.6103043    -0.4586604    -3.3001882
C           3.6768259     0.9607199     1.9786398
H           2.9152529     0.9133672     2.7442693
N           3.3637118     0.7441663     0.6491251
C           4.5040123     0.8641984    -0.0023710
N           5.5340866     1.1800213     0.8399054
H           6.5075002     1.2781010     0.5911976
C           5.0042178     1.2464431     2.1247653
H           5.6141165     1.4908251     2.9804855
18
064_C5H8N4O_2-0-13-12 (-30,) energy =    -489.5963003
N           4.7599610     0.6236242    -1.3644775
H           5.6557960     0.8978673    -1.7439991
C           4.1126253    -0.2913137    -2.2360168
N           2.9502546    -0.8066937    -1.7685347
H           2.6294160    -0.4942914    -0.8537074
C           2.1602136    -1.7309781    -2.5576539
H           1.1823978    -1.3020838    -2.8100530
H           1.9998867    -2.6709854    -2.0161806
H           2.7035740    -1.9385186    -3.4803789
O           4.6239688    -0.5232969    -3.3255289
C           3.6838990     0.9082436     1.9590695
H           2.9182281     0.8194947     2.7167529
N           3.4222438     0.5732020     0.6419281
C           4.5524241     0.7860486    -0.0043678
N           5.5254021     1.2642120     0.8290459
H           6.4816577     1.4734574     0.5830834
C           4.9679703     1.3461684     2.1031115
H           5.5322821     1.7062413     2.9490744
18
064_C5H8N4O_2-0-13-12 (-15,) energy =    -489.5969779
N           4.8389976     0.4913621    -1.3340697
H           5.7307911     0.7685481    -1.7192593
C           4.1325344    -0.3411066    -2.2377940
N           2.9564804    -0.8305885    -1.7770955
H           2.6756202    -0.5733391    -0.8318245
C           2.1188969    -1.6825055    -2.5980049
H           1.1487652    -1.2106117    -2.7977344
H           1.9429523    -2.6481712    -2.1088443
H           2.6321317    -1.8511142    -3.5455409
O           4.6177905    -0.5398017    -3.3461987
C           3.7053432     0.8615517     1.9611699
H           2.9474495     0.7366886     2.7214963
N           3.4906924     0.4216062     0.6659704
C           4.5948637     0.7190701     0.0077978
N           5.5082261     1.3403406     0.8138529
H           6.4326299     1.6503410     0.5532258
C           4.9369687     1.4342919     2.0818431
H           5.4584708     1.8917495     2.9079224
18
064_C5H8N4O_2-0-13-12 (0,) energy =    -489.5971831
N           4.9195706     0.3587501    -1.3005107
H           5.7838745     0.6893789    -1.7047219
C           4.1570295    -0.3769495    -2.2395773
N           2.9777732    -0.8595964    -1.7793885
H           2.7307281    -0.6603352    -0.8108228
C           2.0937698    -1.6306832    -2.6308958
H           1.1324628    -1.1205248    -2.7701747
H           1.9034792    -2.6222196    -2.2025877
H           2.5759831    -1.7487299    -3.6020688
O           4.6087863    -0.5197111    -3.3707497
C           3.7259320     0.8302026     1.9597174
H           2.9753469     0.6853857     2.7237307
N           3.5578372     0.3023217     0.6906083
C           4.6363759     0.6571408     0.0182948
N           5.4936074     1.3881294     0.7934725
H           6.3810597     1.7774096     0.5117455
C           4.9074972     1.5041476     2.0530905
H           5.3886074     2.0389530     2.8569108
18
064_C5H8N4O_2-0-13-12 (15,) energy =    -489.5969815
N           4.9848658     0.2244747    -1.2575543
H           5.8192735     0.6067961    -1.6794689
C           4.1698955    -0.4130404    -2.2260599
N           2.9901210    -0.8930747    -1.7648654
H           2.7752517    -0.7524665    -0.7786171
C           2.0583663    -1.5759599    -2.6404442
H           1.1107220    -1.0283029    -2.7167757
H           1.8477620    -2.5881841    -2.2747446
H           2.5102707    -1.6421866    -3.6309283
O           4.5885504    -0.4954015    -3.3756117
C           3.7473103     0.7971978     1.9707920
H           3.0115335     0.6355116     2.7457754
N           3.6247287     0.1844839     0.7351667
C           4.6671258     0.5927482     0.0367830
N           5.4643579     1.4300206     0.7670057
H           6.3099931     1.8844170     0.4555981
C           4.8719779     1.5666451     2.0213666
H           5.3107569     2.1790038     2.7934454
18
064_C5H8N4O_2-0-13-12 (30,) energy =    -489.5962987
N           5.0474403     0.1014917    -1.1805624
H           5.8789256     0.4958544    -1.5987678
C           4.1985315    -0.4371735    -2.1831793
N           3.0045741    -0.8980203    -1.7390959
H           2.8131023    -0.8270104    -0.7412032
C           2.0392074    -1.4938618    -2.6414505
H           1.1018537    -0.9240640    -2.6514570
H           1.8161932    -2.5277338    -2.3511283
H           2.4674847    -1.4915399    -3.6446051
O           4.6057192    -0.4700380    -3.3387909
C           3.7569587     0.7620054     2.0104464
H           3.0416241     0.5757170     2.7989873
N           3.6967762     0.0631105     0.8173387
C           4.6902739     0.5319025     0.0869355
N           5.4031070     1.4848538     0.7605028
H           6.1863125     2.0147892     0.4077068
C           4.8029544     1.6379229     2.0083366
H           5.1836221     2.3315314     2.7416535
18
064_C5H8N4O_2-0-13-12 (45,) energy =    -489.5950083
N           5.1181038    -0.0598421    -1.0404306
H           5.9770520     0.2911516    -1.4434483
C           4.2483100    -0.5082067    -2.0726507
N           3.0137662    -0.8784291    -1.6531365
H           2.8333038    -0.8665444    -0.6519363
C           2.0328332    -1.4199232    -2.5730887
H           1.0627411    -0.9314413    -2.4292195
H           1.9042007    -2.5017110    -2.4373803
H           2.3816742    -1.2347761    -3.5899334
O           4.6667439    -0.5520859    -3.2230089
C           3.7766719     0.8043791     2.0817451
H           3.0829291     0.6337984     2.8929387
N           3.7820060    -0.0132830     0.9661633
C           4.7253449     0.4706742     0.1817748
N           5.3515286     1.5438373     0.7536710
H           6.0740451     2.1110627     0.3351240
C           4.7430960     1.7642671     1.9853861
H           5.0659863     2.5519092     2.6482453
18
064_C5H8N4O_2-0-13-12 (60,) energy =    -489.5931366
N           5.1720050    -0.2057887    -1.0091048
H           6.0552742     0.1088612    -1.3905323
C           4.2887025    -0.5551983    -2.0672156
N           3.0299558    -0.8672791    -1.6644725
H           2.8630111    -0.9368329    -0.6649728
C           2.0310110    -1.3398768    -2.6031732
H           1.0721535    -0.8421260    -2.4223425
H           1.8831852    -2.4253634    -2.5289842
H           2.3751269    -1.1043147    -3.6111531
O           4.7047728    -0.5776386    -3.2182059
C           3.8528024     0.7369875     2.1009924
H           3.2156618     0.5484779     2.9537772
N           3.9247203    -0.1609644     1.0537125
C           4.7668596     0.3739416     0.1918416
N           5.2694344     1.5608700     0.6518319
H           5.8919649     2.1807364     0.1542049
C           4.6865796     1.7999784     1.8890084
H           4.9334187     2.6692653     2.4788021
18
064_C5H8N4O_2-0-13-12 (75,) energy =    -489.5909397
N           5.2047347    -0.3364719    -0.9369191
H           6.1216733    -0.0865807    -1.2868562
C           4.3267262    -0.6006089    -2.0196876
N           3.0383816    -0.8308171    -1.6427478
H           2.8641399    -0.9665618    -0.6530300
C           2.0357008    -1.2453608    -2.6055720
H           1.0907869    -0.7240397    -2.4188341
H           1.8545398    -2.3278020    -2.5688218
H           2.3986405    -0.9885758    -3.6016303
O           4.7533670    -0.6260764    -3.1659855
C           3.9387179     0.6872028     2.1739161
H           3.3863047     0.4898997     3.0821709
N           4.0871703    -0.2825381     1.2038002
C           4.7945153     0.2840557     0.2469011
N           5.1365428     1.5705946     0.5726155
H           5.6337501     2.2220429    -0.0176054
C           4.5946138     1.8358687     1.8182496
H           4.7369251     2.7831680     2.3156306
18
064_C5H8N4O_2-0-13-12 (90,) energy =    -489.5889531
N           5.2099471    -0.4794996    -0.7867547
H           6.1761911    -0.3595357    -1.0660738
C           4.3764149    -0.6729299    -1.9086321
N           3.0452424    -0.7584392    -1.6036123
H           2.8135355    -0.9440837    -0.6351695
C           2.0831795    -1.1358567    -2.6243189
H           1.1063752    -0.7053077    -2.3842893
H           1.9780464    -2.2253060    -2.7194040
H           2.4261273    -0.7412997    -3.5817087
O           4.8478660    -0.7588571    -3.0337531
C           4.0030165     0.5817804     2.3387208
H           3.5481328     0.3787175     3.2984780
N           4.2385917    -0.4287685     1.4328970
C           4.7872373     0.1569678     0.3871989
N           4.9339567     1.5067587     0.5933481
H           5.2890264     2.1713051    -0.0795512
C           4.4344936     1.7883023     1.8473612
H           4.4479623     2.7850460     2.2621244
18
064_C5H8N4O_2-0-13-12 (105,) energy =    -489.5888901
N           5.2614044    -0.3725829    -0.7719648
H           6.1118639    -0.9216622    -0.7472635
C           4.4002440    -0.8134012    -1.7964527
N           3.0965648    -0.3875569    -1.6927568
H           2.7638655    -0.1359044    -0.7712839
C           2.1094694    -0.9003994    -2.6316043
H           1.2477145    -0.2271433    -2.6501557
H           1.7681977    -1.9125492    -2.3756592
H           2.5618242    -0.9346219    -3.6233371
O           4.8341662    -1.4650809    -2.7335349
C           4.4258662     0.5109909     2.5251368
H           4.3467875     0.2889618     3.5805539
N           4.8770482    -0.4355674     1.6301531
C           4.8528008     0.1597390     0.4559667
N           4.3872224     1.4472750     0.5516657
H           4.3417247     2.1079502    -0.2111343
C           4.1054605     1.6807634     1.8833231
H           3.7068163     2.6219923     2.2303317
18
064_C5H8N4O_2-0-13-12 (120,) energy =    -489.5893472
N           5.2267382    -0.4714689    -0.7124057
H           6.0556812    -1.0501810    -0.6644577
C           4.3812245    -0.8498561    -1.7690890
N           3.0943194    -0.3586736    -1.7042909
H           2.7312655    -0.1533231    -0.7820525
C           2.1280956    -0.8197254    -2.6930874
H           1.2531652    -0.1645115    -2.6653474
H           1.8078553    -1.8560038    -2.5217271
H           2.5866880    -0.7660952    -3.6812493
O           4.8103529    -1.5098600    -2.7024107
C           4.5731284     0.5969367     2.5627207
H           4.6130319     0.4537110     3.6337961
N           5.0451745    -0.3700668     1.6979834
C           4.8484575     0.1215017     0.4938165
N           4.2527976     1.3567016     0.5378281
H           4.0796280     1.9505972    -0.2607223
C           4.0687591     1.6690017     1.8743612
H           3.5966113     2.5874083     2.1883423
18
064_C5H8N4O_2-0-13-12 (135,) energy =    -489.5897862
N           5.1783227    -0.5769244    -0.6464967
H           6.0115072    -1.1482816    -0.5969902
C           4.3702954    -0.8768025    -1.7484341
N           3.0885122    -0.3559774    -1.7057696
H           2.6849861    -0.2492687    -0.7825455
C           2.1608552    -0.7522375    -2.7600724
H           1.2784087    -0.1084679    -2.7126123
H           1.8481376    -1.8014180    -2.6779966
H           2.6509318    -0.6202491    -3.7254043
O           4.8151518    -1.5035156    -2.6972700
C           4.6980741     0.6840085     2.5812941
H           4.8401916     0.6222180     3.6514266
N           5.1746278    -0.3060164     1.7438670
C           4.8343062     0.0793886     0.5336263
N           4.1437298     1.2639619     0.5463481
H           3.8578052     1.7823662    -0.2721768
C           4.0504765     1.6599711     1.8725969
H           3.5286886     2.5582428     2.1652530
18
064_C5H8N4O_2-0-13-12 (150,) energy =    -489.5900911
N           5.0906970    -0.6675263    -0.5729495
H           5.9448093    -1.2074992    -0.5381940
C           4.3313130    -0.8772440    -1.7221948
N           3.0489893    -0.3448072    -1.6929018
H           2.6038466    -0.3437867    -0.7817671
C           2.1687487    -0.6650394    -2.8136821
H           1.2640414    -0.0567054    -2.7326938
H           1.8912810    -1.7264832    -2.8454445
H           2.6822766    -0.4226527    -3.7448968
O           4.8004986    -1.4524595    -2.6917372
C           4.7844179     0.7961431     2.5838015
H           5.0134161     0.8154854     3.6403893
N           5.2532671    -0.2214322     1.7747323
C           4.7929785     0.0604472     0.5756997
N           4.0355216     1.2019011     0.5674478
H           3.6562703     1.6441582    -0.2580327
C           4.0272159     1.6843379     1.8698722
H           3.4785207     2.5719739     2.1448928
18
064_C5H8N4O_2-0-13-12 (165,) energy =    -489.5901665
N           5.0074898    -0.7877791    -0.5047757
H           5.8870672    -1.2866295    -0.4880808
C           4.3047574    -0.9103904    -1.6986277
N           3.0194723    -0.3750800    -1.6860010
H           2.5341754    -0.4696608    -0.7997696
C           2.1916869    -0.6201355    -2.8658070
H           1.2696934    -0.0405861    -2.7711479
H           1.9438327    -1.6810528    -2.9965451
H           2.7340945    -0.2888521    -3.7522231
O           4.8063288    -1.4329962    -2.6813381
C           4.8791730     0.8822034     2.5570697
H           5.1910061     0.9822586     3.5875888
N           5.3342439    -0.1640760     1.7765473
C           4.7625112     0.0157569     0.6063223
N           3.9473451     1.1149145     0.5889429
H           3.4941508     1.4877845    -0.2338610
C           4.0237117     1.6853005     1.8545392
H           3.4557272     2.5645624     2.1168062
18
064_C5H8N4O_2-0-13-12 (180,) energy =    -489.5898552
N           4.9333421    -0.8931619    -0.4283516
H           5.8318442    -1.3591451    -0.4219960
C           4.2940867    -0.9342596    -1.6637894
N           3.0038027    -0.4046642    -1.6723420
H           2.4796460    -0.5897199    -0.8226109
C           2.2348797    -0.5698677    -2.9058426
H           1.2994572    -0.0125105    -2.8104197
H           2.0132001    -1.6210293    -3.1283919
H           2.8109226    -0.1630122    -3.7379207
O           4.8367949    -1.4010117    -2.6519300
C           4.9829050     0.9631251     2.5260361
H           5.3774575     1.1385069     3.5174041
N           5.4271422    -0.1022436     1.7644305
C           4.7429026    -0.0218345     0.6449898
N           3.8678769     1.0286561     0.6412411
H           3.3481300     1.3419790    -0.1672955
C           4.0279734     1.6800265     1.8605176
H           3.4423399     2.5480694     2.1211878
