19
250_C8H8ClNO_0-1-9-10 (-165,) energy =    -899.8613122
C           1.1203396    -0.9183650     0.1686690
N           2.4142787    -1.0350359    -0.3065718
H           2.5544437    -1.6670582    -1.0837750
C           5.8490519     1.2579969     0.5951869
H           6.7399022     1.8389636     0.8136328
C           4.7220462     1.3420770     1.4128303
H           4.7274034     1.9948124     2.2810545
C           3.5781568     0.5967605     1.1381788
H           2.6999861     0.6657171     1.7642587
C           3.5356354    -0.2568330     0.0219214
C           4.6819333    -0.3232274    -0.7940942
Cl          4.6908675    -1.3800581    -2.2140421
C           5.8265247     0.4162355    -0.5155556
H           6.6865104     0.3295440    -1.1710234
C           0.1237505    -1.8207189    -0.5452759
H          -0.6871779    -2.0566501     0.1460492
H           0.5715468    -2.7502769    -0.9120408
H          -0.3050696    -1.2857984    -1.4012519
O           0.7844477    -0.1579480     1.0630428
19
250_C8H8ClNO_0-1-9-10 (-150,) energy =    -899.8603445
C           1.1186491    -0.8769464     0.1220095
N           2.4401258    -1.1246452    -0.2154193
H           2.5927772    -1.8067143    -0.9470457
C           5.8258498     1.2810976     0.5702655
H           6.7026123     1.8925344     0.7610173
C           4.7359701     1.3034516     1.4409528
H           4.7565218     1.9373910     2.3226883
C           3.6127944     0.5162020     1.2007409
H           2.7618635     0.5410913     1.8668326
C           3.5525191    -0.3128246     0.0680619
C           4.6572634    -0.3127794    -0.8041418
Cl          4.6402859    -1.3356033    -2.2476332
C           5.7854887     0.4632708    -0.5576481
H           6.6173777     0.4261215    -1.2528285
C           0.1284343    -1.8016586    -0.5709320
H          -0.7558879    -1.9007634     0.0609135
H           0.5431256    -2.7940863    -0.7763546
H          -0.1825439    -1.3561952    -1.5236821
O           0.7664748    -0.0008227     0.8945179
19
250_C8H8ClNO_0-1-9-10 (-135,) energy =    -899.8588099
C           1.1230406    -0.8367472     0.0604504
N           2.4517483    -1.2028516    -0.1218399
H           2.6132032    -1.9391810    -0.7975258
C           5.7903250     1.3021305     0.5412861
H           6.6516680     1.9427636     0.7048786
C           4.7457749     1.2644272     1.4660370
H           4.7867794     1.8790781     2.3605135
C           3.6451846     0.4370070     1.2600795
H           2.8291580     0.4110833     1.9697193
C           3.5617186    -0.3667830     0.1128720
C           4.6150190    -0.3008415    -0.8158234
Cl          4.5568012    -1.2876484    -2.2812451
C           5.7265389     0.5101190    -0.6038920
H           6.5240851     0.5225659    -1.3390622
C           0.1311540    -1.7858520    -0.5949533
H          -0.8104504    -1.7415747    -0.0450225
H           0.4901008    -2.8199513    -0.6231499
H          -0.0599422    -1.4610204    -1.6249717
O           0.7770931     0.1479234     0.6894421
19
250_C8H8ClNO_0-1-9-10 (-120,) energy =    -899.8567691
C           1.2153346    -0.9041200    -0.0272057
N           2.5441224    -1.3248941    -0.0560889
H           2.7379168    -2.0956142    -0.6841202
C           5.7772195     1.3217055     0.5801474
H           6.6079919     2.0025840     0.7399342
C           4.7923469     1.1624271     1.5563160
H           4.8492005     1.7223508     2.4850800
C           3.7345650     0.2805258     1.3518634
H           2.9644345     0.1524457     2.1025348
C           3.6355755    -0.4532086     0.1623727
C           4.6211160    -0.2587719    -0.8188812
Cl          4.5277980    -1.1480707    -2.3414262
C           5.6953325     0.6031580    -0.6116947
H           6.4471718     0.7145066    -1.3856651
C           0.2479380    -1.8828017    -0.6747177
H          -0.7475131    -1.7189956    -0.2590782
H           0.5434038    -2.9259494    -0.5202608
H           0.2048905    -1.6964833    -1.7548370
O           0.8603212     0.1429171     0.4819515
19
250_C8H8ClNO_0-1-9-10 (-105,) energy =    -899.8544247
C           1.2335870    -0.8590461    -0.1258517
N           2.5317914    -1.3446478     0.0377615
H           2.7390697    -2.1918456    -0.4785497
C           5.7633004     1.3291817     0.5721171
H           6.5906576     2.0195751     0.7077185
C           4.8391610     1.1220447     1.5973478
H           4.9387797     1.6537971     2.5389020
C           3.7872262     0.2270081     1.4189044
H           3.0612063     0.0545301     2.2055898
C           3.6358098    -0.4700446     0.2153078
C           4.5563497    -0.2239714    -0.8147519
Cl          4.3875832    -1.0620879    -2.3567046
C           5.6264839     0.6505375    -0.6382005
H           6.3315396     0.8034327    -1.4482419
C           0.2655843    -1.8763581    -0.7092525
H          -0.7497459    -1.6015524    -0.4192333
H           0.4808045    -2.8964511    -0.3741121
H           0.3283023    -1.8560282    -1.8042089
O           0.9068346     0.2697010     0.1884889
19
250_C8H8ClNO_0-1-9-10 (-90,) energy =    -899.8523000
C           1.2650201    -0.8230505    -0.3170020
N           2.5120775    -1.3223872     0.0570880
H           2.7250965    -2.2530099    -0.2842608
C           5.7868497     1.3163236     0.5285010
H           6.6240899     1.9979284     0.6479932
C           4.9269912     1.0577690     1.5965959
H           5.0875159     1.5398695     2.5562481
C           3.8598469     0.1769176     1.4322744
H           3.1793499    -0.0379137     2.2496863
C           3.6324942    -0.4544196     0.2063505
C           4.4949530    -0.1647105    -0.8616365
Cl          4.2375379    -0.9313879    -2.4250546
C           5.5752390     0.7014862    -0.7053202
H           6.2321772     0.8957201    -1.5463251
C           0.2958773    -1.8868856    -0.8091915
H          -0.7235105    -1.5193630    -0.6817448
H           0.4138900    -2.8369072    -0.2773155
H           0.4653826    -2.0696845    -1.8774104
O           0.9794774     0.3565111    -0.2376257
19
250_C8H8ClNO_0-1-9-10 (-75,) energy =    -899.8509238
C           1.2786460    -0.8073819    -0.5036763
N           2.4595344    -1.2449985     0.0775990
H           2.6309780    -2.2430529     0.0851177
C           5.8058587     1.3031548     0.5481245
H           6.6626352     1.9598736     0.6690951
C           5.0065377     0.9772497     1.6440273
H           5.2335163     1.3789454     2.6270324
C           3.9070847     0.1379240     1.4722144
H           3.2633653    -0.1183412     2.3079354
C           3.5929071    -0.3906031     0.2170437
C           4.4103586    -0.0529363    -0.8731094
Cl          4.0763864    -0.7170675    -2.4633341
C           5.5104049     0.7884705    -0.7139727
H           6.1251415     1.0328770    -1.5735853
C           0.2912799    -1.9206457    -0.8210047
H          -0.7133444    -1.4965659    -0.8590752
H           0.3192760    -2.7312458    -0.0847912
H           0.5229744    -2.3444836    -1.8056976
O           1.0569979     0.3672877    -0.7333193
19
250_C8H8ClNO_0-1-9-10 (-60,) energy =    -899.8507799
C           1.3173256    -0.8449231    -0.7245378
N           2.4431792    -1.1702585     0.0162318
H           2.4028293    -2.0007222     0.5910382
C           5.8300255     1.2999429     0.5723756
H           6.6966226     1.9382140     0.7179058
C           5.0864258     0.8543180     1.6657827
H           5.3643335     1.1431737     2.6750806
C           3.9673170     0.0532448     1.4574751
H           3.3585856    -0.2693841     2.2980714
C           3.5812012    -0.3398492     0.1688519
C           4.3600956     0.0900159    -0.9189575
Cl          4.0260421    -0.4588607    -2.5476558
C           5.4657149     0.9178657    -0.7170755
H           6.0445519     1.2406161    -1.5758171
C           0.2684567    -1.9463874    -0.7712689
H          -0.7077635    -1.4907097    -0.9452413
H           0.2328354    -2.5469954     0.1444660
H           0.4874032    -2.6185938    -1.6093340
O           1.1941726     0.2149224    -1.3094295
19
250_C8H8ClNO_0-1-9-10 (-45,) energy =    -899.8490977
C           1.3112116    -0.8537904    -0.7796464
N           2.3754112    -1.0770305     0.0824982
H           2.3098957    -1.8720514     0.7034466
C           5.8516111     1.2827122     0.5747480
H           6.7326692     1.9026262     0.7116246
C           5.1404535     0.8050134     1.6765960
H           5.4568888     1.0502854     2.6861198
C           4.0006926     0.0337812     1.4775892
H           3.4113986    -0.3009324     2.3275497
C           3.5595938    -0.3104065     0.1898475
C           4.3107517     0.1446521    -0.9087930
Cl          3.9732576    -0.3841821    -2.5436562
C           5.4361703     0.9489488    -0.7113995
H           5.9936742     1.2867033    -1.5784970
C           0.2840004    -1.9769553    -0.7923135
H          -0.6823543    -1.5619616    -1.0834882
H           0.1865368    -2.4827854     0.1748114
H           0.5748923    -2.7258595    -1.5386022
O           1.2076088     0.1455961    -1.4650533
19
250_C8H8ClNO_0-1-9-10 (-30,) energy =    -899.8459712
C           1.2963534    -0.8655461    -0.8422691
N           2.3077963    -0.9585434     0.1063928
H           2.2172926    -1.7106658     0.7765485
C           5.8859284     1.2515792     0.5829046
H           6.7862069     1.8415339     0.7259093
C           5.1828772     0.7470557     1.6783713
H           5.5231548     0.9404030     2.6914411
C           4.0187736     0.0189257     1.4697905
H           3.4343900    -0.3260743     2.3194304
C           3.5384764    -0.2656612     0.1783090
C           4.2840003     0.2118540    -0.9161117
Cl          3.9515969    -0.2680046    -2.5678692
C           5.4360570     0.9764517    -0.7041407
H           5.9886111     1.3270251    -1.5693557
C           0.3009801    -2.0164962    -0.7865652
H          -0.6574241    -1.6668569    -1.1738559
H           0.1604792    -2.4167210     0.2238302
H           0.6534557    -2.8332137    -1.4280023
O           1.1960074     0.0558502    -1.6288144
19
250_C8H8ClNO_0-1-9-10 (-15,) energy =    -899.8420815
C           1.3451047    -0.9192000    -0.9495201
N           2.3120162    -0.8556537     0.0519211
H           2.1770923    -1.5265211     0.7975576
C           5.9892693     1.1754191     0.6022110
H           6.9118129     1.7217103     0.7730905
C           5.2644011     0.6407715     1.6687675
H           5.6086830     0.7656933     2.6911798
C           4.0761003    -0.0307940     1.4210053
H           3.4813794    -0.3961860     2.2554222
C           3.5795032    -0.2325654     0.1166924
C           4.3461066     0.2755204    -0.9507225
Cl          4.0246944    -0.0959362    -2.6327438
C           5.5280060     0.9813839    -0.6941605
H           6.0945967     1.3520083    -1.5417486
C           0.3741689    -2.0795946    -0.7663834
H          -0.5180157    -1.8815336    -1.3617128
H           0.0845041    -2.2237503     0.2812227
H           0.8326575    -3.0111981    -1.1197333
O           1.2460850    -0.1139761    -1.8531434
19
250_C8H8ClNO_0-1-9-10 (0,) energy =    -899.8384994
C           1.3687344    -1.0203865    -1.0613106
N           2.2973261    -0.7621678    -0.0508249
H           2.0987043    -1.2886160     0.7899143
C           6.0330839     1.1269888     0.6501183
H           6.9721627     1.6260220     0.8680988
C           5.2749600     0.5437317     1.6656788
H           5.6070893     0.5787218     2.6990502
C           4.0736388    -0.0732161     1.3532370
H           3.4699421    -0.4919322     2.1562690
C           3.5769405    -0.1634241     0.0334656
C           4.3710778     0.4067179    -0.9835235
Cl          4.0406043     0.2643272    -2.6974955
C           5.5753836     1.0455561    -0.6584521
H           6.1588100     1.4652094    -1.4709250
C           0.3718344    -2.1061326    -0.6619315
H          -0.4907582    -2.0411468    -1.3260718
H           0.0343643    -2.0086900     0.3766956
H           0.8288363    -3.0966873    -0.7764185
O           1.3047500    -0.4436538    -2.1261895
19
250_C8H8ClNO_0-1-9-10 (15,) energy =    -899.8420810
C           1.7524618    -1.3419263    -1.0896950
N           2.4522389    -0.8673845     0.0177892
H           1.9487022    -0.9534664     0.8913219
C           6.0607142     1.2600916     0.6519011
H           7.0035311     1.7681456     0.8299663
C           5.4458115     0.5152902     1.6598594
H           5.9026172     0.4266805     2.6411483
C           4.2540515    -0.1432224     1.3945888
H           3.8054904    -0.7709928     2.1615362
C           3.6072621    -0.0620720     0.1440639
C           4.2188990     0.7299451    -0.8478521
Cl          3.4427881     1.1536778    -2.3606882
C           5.4387015     1.3660313    -0.5861977
H           5.8761050     1.9722968    -1.3722612
C           0.3230279    -1.7551440    -0.7601716
H          -0.0250523    -2.4437871    -1.5312513
H          -0.3277256    -0.8722452    -0.7612059
H           0.2353597    -2.2364250     0.2208918
O           2.2317702    -1.4607221    -2.1991872
19
250_C8H8ClNO_0-1-9-10 (30,) energy =    -899.8459745
C           1.8040699    -1.3799618    -1.0222143
N           2.3771734    -0.7876763     0.0973922
H           1.8013129    -0.7764936     0.9290855
C           6.0739834     1.2098866     0.6073742
H           7.0373012     1.6913695     0.7460134
C           5.4971391     0.4586083     1.6328857
H           6.0059759     0.3408106     2.5850743
C           4.2772193    -0.1703114     1.4203111
H           3.8512377    -0.8050012     2.1937053
C           3.5742232    -0.0436666     0.2081698
C           4.1482190     0.7546647    -0.7991925
Cl          3.2839415     1.2027884    -2.2557314
C           5.3944588     1.3570324    -0.5972561
H           5.8072627     1.9672584    -1.3935039
C           0.3483543    -1.7775745    -0.8180382
H           0.0906276    -2.5409413    -1.5534573
H          -0.2991644    -0.9069376    -0.9778569
H           0.1520577    -2.1633090     0.1890924
O           2.4088848    -1.5875962    -2.0559112
19
250_C8H8ClNO_0-1-9-10 (45,) energy =    -899.8490975
C           1.6603966    -1.6929819    -0.1404359
N           2.1028657    -0.3932323    -0.3417241
H           1.4466109     0.2629811    -0.7425194
C           5.8629986     1.2519009     0.6817457
H           6.8222304     1.6750031     0.9648266
C           4.6764768     1.9304638     0.9641145
H           4.6964864     2.8890341     1.4741959
C           3.4579386     1.3586975     0.6153178
H           2.5264677     1.8550290     0.8755972
C           3.3868010     0.1239573    -0.0492322
C           4.5932856    -0.5273881    -0.3630237
Cl          4.6360503    -1.9661351    -1.3602665
C           5.8170938     0.0289760     0.0179715
H           6.7306451    -0.4980416    -0.2358699
C           0.2954738    -1.9792042    -0.7502590
H          -0.1745248    -2.7879158    -0.1881847
H           0.4242074    -2.3115514    -1.7872717
H          -0.3664539    -1.1059723    -0.7542596
O           2.3032668    -2.5292087     0.4651497
19
250_C8H8ClNO_0-1-9-10 (60,) energy =    -899.8507798
C           1.6501972    -1.6452170    -0.1126907
N           2.1347623    -0.3965022    -0.4705254
H           1.4976638     0.2405349    -0.9287722
C           5.8551340     1.2359899     0.7027086
H           6.8090921     1.6549187     1.0093558
C           4.6610527     1.8845448     1.0198932
H           4.6720451     2.8149282     1.5799026
C           3.4476757     1.3212947     0.6351801
H           2.5097201     1.7974843     0.9085555
C           3.3969569     0.1229722    -0.0898226
C           4.6096231    -0.5002496    -0.4301625
Cl          4.6438091    -1.9281490    -1.4428271
C           5.8273965     0.0454848    -0.0206703
H           6.7477546    -0.4608954    -0.2911674
C           0.2904971    -1.9756043    -0.7106964
H          -0.2084490    -2.6986776    -0.0632929
H           0.4311751    -2.4367644    -1.6954272
H          -0.3502637    -1.0958061    -0.8369876
O           2.2717482    -2.4186221     0.5916186
19
250_C8H8ClNO_0-1-9-10 (75,) energy =    -899.8509239
C           1.5604307    -1.4848962     0.0219398
N           2.0895213    -0.3205432    -0.5149799
H           1.7393270    -0.0253689    -1.4182027
C           5.8457468     1.2023832     0.7036954
H           6.8094067     1.5917098     1.0195338
C           4.6649593     1.8014387     1.1428611
H           4.6989013     2.6610659     1.8055049
C           3.4359521     1.2869285     0.7335635
H           2.5047841     1.7290827     1.0739480
C           3.3643211     0.1805143    -0.1175764
C           4.5634484    -0.4071584    -0.5504794
Cl          4.5282822    -1.7786363    -1.6456641
C           5.7983795     0.0965259    -0.1448068
H           6.7094315    -0.3770082    -0.4945246
C           0.3393639    -2.0120366    -0.7170034
H          -0.2451307    -2.6278609    -0.0316703
H           0.6631455    -2.6421314    -1.5543130
H          -0.2902724    -1.2096674    -1.1165513
O           2.0347346    -2.0295615     1.0017814
19
250_C8H8ClNO_0-1-9-10 (90,) energy =    -899.8523008
C           1.4772428    -1.3318253     0.0879420
N           2.1022442    -0.2976910    -0.6072968
H           1.9389712    -0.2893146    -1.6079211
C           5.8432141     1.1745659     0.7128973
H           6.8030090     1.5492964     1.0566396
C           4.6560350     1.7060162     1.2181215
H           4.6828212     2.4971422     1.9614799
C           3.4305672     1.2214823     0.7655235
H           2.4959830     1.6206217     1.1457830
C           3.3693523     0.2032452    -0.1899506
C           4.5739123    -0.3332234    -0.6690355
Cl          4.5406941    -1.6237109    -1.8654203
C           5.8058832     0.1539774    -0.2368975
H           6.7202375    -0.2722249    -0.6355469
C           0.3537064    -2.0048971    -0.6853649
H          -0.3275821    -2.4763964     0.0245603
H           0.7715178    -2.7857830    -1.3325918
H          -0.2001645    -1.3001058    -1.3145557
O           1.7953692    -1.6500927     1.2180225
19
250_C8H8ClNO_0-1-9-10 (105,) energy =    -899.8544249
C           1.3959440    -1.2136535     0.1244650
N           2.1387416    -0.3331977    -0.6635855
H           2.0731149    -0.4947640    -1.6620288
C           5.8353792     1.1794128     0.7233649
H           6.7850168     1.5645856     1.0830503
C           4.6349464     1.6286370     1.2757718
H           4.6418016     2.3653315     2.0735512
C           3.4211741     1.1374256     0.8014779
H           2.4799425     1.4764684     1.2196299
C           3.3844816     0.1872511    -0.2248350
C           4.6027754    -0.2757364    -0.7448625
Cl          4.6030039    -1.4916805    -2.0216120
C           5.8217413     0.2270733    -0.2949894
H           6.7449659    -0.1380848    -0.7319867
C           0.3331391    -1.9807978    -0.6463460
H          -0.4436615    -2.3005757     0.0499110
H           0.7809982    -2.8748825    -1.0973210
H          -0.1137980    -1.3824533    -1.4472823
O           1.5737573    -1.3383817     1.3213178
19
250_C8H8ClNO_0-1-9-10 (120,) energy =    -899.8567694
C           1.3247264    -1.1304748     0.1322167
N           2.1911734    -0.4107211    -0.6889651
H           2.1908087    -0.6888785    -1.6629768
C           5.8398496     1.1945161     0.7153788
H           6.7790133     1.6038419     1.0755460
C           4.6315464     1.5625527     1.3093770
H           4.6219733     2.2616238     2.1403902
C           3.4287142     1.0436126     0.8378371
H           2.4863058     1.3209645     1.2938763
C           3.4110504     0.1387104    -0.2317562
C           4.6388790    -0.2405109    -0.7979291
Cl          4.6677731    -1.3923707    -2.1358515
C           5.8441298     0.2929300    -0.3478930
H           6.7717366    -0.0101631    -0.8215702
C           0.3032629    -1.9583493    -0.6320371
H          -0.5563885    -2.1391386     0.0150668
H           0.7418553    -2.9272022    -0.9008150
H          -0.0271265    -1.4666478    -1.5531218
O           1.3728310    -1.0895342     1.3477763
19
250_C8H8ClNO_0-1-9-10 (135,) energy =    -899.8588081
C           1.2643065    -1.0671936     0.1284123
N           2.2473994    -0.5061345    -0.6786864
H           2.2961002    -0.8642007    -1.6243422
C           5.8469733     1.2282965     0.6985373
H           6.7760888     1.6701290     1.0458415
C           4.6400513     1.5139979     1.3382598
H           4.6212691     2.1836203     2.1931391
C           3.4478408     0.9536193     0.8875698
H           2.5112236     1.1653032     1.3856498
C           3.4400190     0.0826116    -0.2126054
C           4.6682996    -0.2075399    -0.8318735
Cl          4.7159395    -1.3039736    -2.2176114
C           5.8596213     0.3664028    -0.3968268
H           6.7845298     0.1264059    -0.9102995
C           0.2728832    -1.9365495    -0.6302549
H          -0.6600048    -1.9769278    -0.0657709
H           0.6673471    -2.9565558    -0.7149309
H           0.0739535    -1.5630032    -1.6403127
O           1.1946538    -0.8804892     1.3305373
19
250_C8H8ClNO_0-1-9-10 (150,) energy =    -899.8603410
C           1.2183770    -1.0104535     0.1186869
N           2.3061256    -0.6082624    -0.6410342
H           2.3923423    -1.0332313    -1.5553233
C           5.8555713     1.2697168     0.6784915
H           6.7738900     1.7477325     1.0057926
C           4.6588595     1.4772421     1.3650199
H           4.6366924     2.1230538     2.2380634
C           3.4787699     0.8695492     0.9442740
H           2.5526335     1.0184302     1.4813880
C           3.4728740     0.0259556    -0.1791858
C           4.6923527    -0.1794603    -0.8513778
Cl          4.7478601    -1.2313317    -2.2728563
C           5.8693222     0.4381336    -0.4399645
H           6.7849701     0.2574488    -0.9928312
C           0.2514921    -1.9141992    -0.6325274
H          -0.7343265    -1.8273725    -0.1729052
H           0.5791963    -2.9573191    -0.5454130
H           0.1812513    -1.6665752    -1.6970182
O           1.0426961    -0.6833756     1.2807198
19
250_C8H8ClNO_0-1-9-10 (165,) energy =    -899.8612990
C           1.1771538    -0.9625476     0.0958365
N           2.3530688    -0.7181610    -0.5912833
H           2.4673991    -1.2064985    -1.4698744
C           5.8517020     1.2990424     0.6561633
H           6.7579146     1.8123333     0.9629733
C           4.6717964     1.4342817     1.3878545
H           4.6505427     2.0587431     2.2764052
C           3.5059041     0.7804415     0.9974533
H           2.5918839     0.8756534     1.5661240
C           3.4973079    -0.0373089    -0.1460894
C           4.7002064    -0.1646659    -0.8682177
Cl          4.7546375    -1.1788907    -2.3180314
C           5.8626535     0.4939594    -0.4816248
H           6.7645383     0.3683078    -1.0711837
C           0.2268893    -1.8938504    -0.6436179
H          -0.7874759    -1.7071454    -0.2876418
H           0.4823127    -2.9365562    -0.4187635
H           0.2623300    -1.7611327    -1.7302234
O           0.9152112    -0.4989733     1.1945411
19
250_C8H8ClNO_0-1-9-10 (180,) energy =    -899.8616276
C           1.1334397    -0.9563117     0.2030265
N           2.3808681    -0.9331656    -0.3920235
H           2.5012120    -1.5185283    -1.2079319
C           5.8658539     1.2337495     0.6205166
H           6.7693977     1.7828384     0.8673110
C           4.7093897     1.3799575     1.3864946
H           4.7038368     2.0492543     2.2420641
C           3.5474985     0.6782124     1.0751819
H           2.6496053     0.7879811     1.6664645
C           3.5177197    -0.1969278    -0.0250545
C           4.6964845    -0.3308612    -0.7854498
Cl          4.7245165    -1.4174165    -2.1829437
C           5.8562565     0.3704904    -0.4738893
H           6.7393462     0.2348778    -1.0891252
C           0.1286425    -1.8416685    -0.5209350
H          -0.5960935    -2.2086327     0.2080320
H           0.5915506    -2.6914785    -1.0334146
H          -0.4125093    -1.2456966    -1.2656418
O           0.8335623    -0.3131235     1.1971924
