27
382_C13H13N_22-0-3-11 (-165,) energy =    -557.9610025
C           1.0750476    -0.9025271     0.2390832
H           1.5351152    -1.4532650     1.0760359
H           0.6569272     0.0208099     0.6640849
N           2.0661112    -0.5433782    -0.7758198
H           2.1134319    -1.2243621    -1.5246631
C           5.8563108     1.0063494     0.2481232
H           6.8318725     1.4117184     0.4998455
C           4.8031692     1.0721439     1.1591333
H           4.9547263     1.5327304     2.1323573
C           3.5467390     0.5501895     0.8467558
H           2.7442684     0.6176567     1.5739724
C           3.3191454    -0.0506525    -0.4044363
C           4.3876688    -0.1137859    -1.3209910
H           4.2256038    -0.5739324    -2.2939124
C           5.6347676     0.4073087    -0.9960382
H           6.4421996     0.3425910    -1.7212964
C          -2.0825339    -3.2793664    -1.5136485
H          -2.8769516    -3.8748168    -1.9556112
C          -1.3037850    -3.8040559    -0.4820981
H          -1.4871810    -4.8114735    -0.1179689
C          -0.2823531    -3.0371593     0.0832582
H           0.3254308    -3.4514260     0.8844358
C          -0.0312922    -1.7372030    -0.3686607
C          -0.8198370    -1.2185354    -1.4064346
H          -0.6290134    -0.2104370    -1.7657801
C          -1.8366223    -1.9838058    -1.9759987
H          -2.4408726    -1.5681606    -2.7781408
27
382_C13H13N_22-0-3-11 (-150,) energy =    -557.9598691
C           0.9114138    -0.5379820     0.1123913
H           1.3039225    -0.8943180     1.0767820
H           0.4139946     0.4223089     0.3064337
N           2.0112571    -0.3474848    -0.8384743
H           1.9973687    -1.0179345    -1.5965794
C           5.9124073     0.6995485     0.3784555
H           6.9183284     0.9734750     0.6824356
C           4.8189219     1.0005796     1.1898006
H           4.9684277     1.5171352     2.1349154
C           3.5224825     0.6532140     0.8083930
H           2.6877344     0.9167703     1.4500782
C           3.2942742    -0.0161304    -0.4086506
C           4.4034963    -0.3144642    -1.2254648
H           4.2446456    -0.8285530    -2.1716782
C           5.6896466     0.0407781    -0.8346694
H           6.5270706    -0.2049174    -1.4831992
C          -1.8979387    -3.4106217    -1.4793534
H          -2.5997357    -4.1349574    -1.8839976
C          -0.8206541    -3.8397435    -0.7010489
H          -0.6821194    -4.8982140    -0.4971537
C           0.0776251    -2.9091444    -0.1780693
H           0.9137246    -3.2454609     0.4312604
C          -0.0891482    -1.5392487    -0.4219543
C          -1.1717277    -1.1208328    -1.2056273
H          -1.3088017    -0.0598184    -1.4008704
C          -2.0721673    -2.0486948    -1.7315765
H          -2.9098218    -1.7082136    -2.3345278
27
382_C13H13N_22-0-3-11 (-135,) energy =    -557.9590868
C           0.7874813    -0.2180746    -0.1395643
H           1.0765928    -0.3530229     0.9113304
H           0.2293877     0.7279542    -0.1938865
N           1.9988621    -0.1599631    -0.9527160
H           1.9636573    -0.7244750    -1.7905261
C           5.8969605     0.4315417     0.5455339
H           6.9039174     0.5842158     0.9222832
C           4.7911920     0.8764996     1.2696084
H           4.9334988     1.3877521     2.2187045
C           3.4934669     0.6899846     0.7926968
H           2.6545302     1.0783446     1.3614438
C           3.2730530     0.0302257    -0.4317477
C           4.3960736    -0.4115975    -1.1615780
H           4.2451866    -0.9198311    -2.1122935
C           5.6840713    -0.2094205    -0.6786232
H           6.5300392    -0.5638530    -1.2625929
C          -1.7784103    -3.4957399    -1.3222358
H          -2.4212064    -4.3206669    -1.6175413
C          -0.4922891    -3.7477672    -0.8363226
H          -0.1336755    -4.7700641    -0.7491066
C           0.3319089    -2.6896561    -0.4567717
H           1.3312276    -2.8893103    -0.0764710
C          -0.1152991    -1.3636031    -0.5557259
C          -1.4027046    -1.1228250    -1.0466404
H          -1.7581697    -0.0985404    -1.1329670
C          -2.2320886    -2.1810314    -1.4261602
H          -3.2295996    -1.9762858    -1.8059266
27
382_C13H13N_22-0-3-11 (-120,) energy =    -557.9586414
C           0.6917344    -0.0739226    -0.2723632
H           0.9404029    -0.1047690     0.7943644
H           0.0742049     0.8225636    -0.4242678
N           1.9377295     0.0227541    -1.0281716
H           1.9016235    -0.4417590    -1.9261502
C           5.8246787     0.1348870     0.6156310
H           6.8288758     0.1664088     1.0276887
C           4.7389847     0.6141722     1.3487233
H           4.8951831     1.0312894     2.3406889
C           3.4458933     0.5844459     0.8269778
H           2.6288134     1.0012648     1.4073426
C           3.2056497     0.0498816    -0.4535580
C           4.3088748    -0.4285076    -1.1902332
H           4.1440004    -0.8428673    -2.1832325
C           5.5949341    -0.3806811    -0.6628300
H           6.4243621    -0.7591557    -1.2553352
C          -1.6130394    -3.5967121    -1.2853625
H          -2.1907391    -4.4817800    -1.5380629
C          -0.2841443    -3.7208711    -0.8698952
H           0.1733758    -4.7039466    -0.7948702
C           0.4577871    -2.5858558    -0.5472555
H           1.4913928    -2.6872081    -0.2248656
C          -0.1162629    -1.3085844    -0.6327423
C          -1.4452787    -1.1953991    -1.0539625
H          -1.8995925    -0.2099710    -1.1315296
C          -2.1920767    -2.3312426    -1.3761360
H          -3.2231122    -2.2248856    -1.7031268
27
382_C13H13N_22-0-3-11 (-105,) energy =    -557.9592095
C           0.7702642     0.0478103    -0.1028850
H           1.1787024     0.0928181     0.9161758
H           0.0670767     0.8883019    -0.1793892
N           1.8360171     0.2681631    -1.0734529
H           1.6768770     1.0630521    -1.6775486
C           5.9173850    -0.2437638    -0.1282567
H           6.9694216    -0.3762982     0.1063065
C           4.9423736    -0.9933286     0.5306656
H           5.2338276    -1.7230803     1.2820679
C           3.5890139    -0.8328263     0.2343045
H           2.8505128    -1.4529039     0.7328219
C           3.1819774     0.1037172    -0.7332176
C           4.1693553     0.8543458    -1.3984578
H           3.8706910     1.5823745    -2.1508244
C           5.5168855     0.6775242    -1.0994789
H           6.2593323     1.2724112    -1.6257034
C          -1.5158120    -3.6060046    -0.5708688
H          -2.0964528    -4.5178772    -0.6825822
C          -1.7194186    -2.7738577     0.5332678
H          -2.4591258    -3.0365418     1.2852900
C          -0.9705443    -1.6068861     0.6752626
H          -1.1321147    -0.9653917     1.5402943
C          -0.0115440    -1.2494376    -0.2825015
C           0.1874401    -2.0870130    -1.3824304
H           0.9352872    -1.8131678    -2.1200642
C          -0.5600349    -3.2590121    -1.5253867
H          -0.3916862    -3.9020919    -2.3855961
27
382_C13H13N_22-0-3-11 (-90,) energy =    -557.9601835
C           0.6545404     0.2245625    -0.2418533
H           0.9391478     0.4231961     0.8032791
H          -0.1046652     0.9742687    -0.5001290
N           1.7814040     0.4398842    -1.1401694
H           1.7142415     1.2938772    -1.6770450
C           5.7598559    -0.4453770    -0.0423476
H           6.7861033    -0.6728729     0.2306054
C           4.6968778    -1.0840612     0.5959617
H           4.8921022    -1.8198668     1.3722458
C           3.3744865    -0.8001202     0.2531446
H           2.5656555    -1.3281736     0.7468555
C           3.0914712     0.1458816    -0.7480732
C           4.1677105     0.7855197    -1.3921043
H           3.9639478     1.5186173    -2.1707907
C           5.4813338     0.4907136    -1.0421938
H           6.2939045     1.0016454    -1.5528230
C          -1.2666208    -3.6510161    -0.5000895
H          -1.7607847    -4.6168684    -0.5636816
C          -1.3516175    -2.8947262     0.6705351
H          -1.9105123    -3.2699185     1.5240429
C          -0.7099175    -1.6584224     0.7509379
H          -0.7735012    -1.0767973     1.6690463
C           0.0175251    -1.1569595    -0.3356647
C           0.1005198    -1.9221137    -1.5032404
H           0.6794077    -1.5419126    -2.3394886
C          -0.5363391    -3.1615467    -1.5845105
H          -0.4589054    -3.7475405    -2.4968730
27
382_C13H13N_22-0-3-11 (-75,) energy =    -557.9599111
C           0.5804467     0.3509693    -0.2795723
H           0.7434231     0.6153934     0.7793773
H          -0.2020314     1.0259993    -0.6480302
N           1.7618527     0.6175682    -1.0818670
H           1.7426832     1.4939083    -1.5832320
C           5.6690515    -0.6300161    -0.0912519
H           6.6784578    -0.9478386     0.1527035
C           4.5725646    -1.1644662     0.5840185
H           4.7242253    -1.9071333     1.3635611
C           3.2703248    -0.7633612     0.2814052
H           2.4361737    -1.2045960     0.8146777
C           3.0419013     0.1928958    -0.7240402
C           4.1534285     0.7296037    -1.4041221
H           3.9912452     1.4697306    -2.1858651
C           5.4450902     0.3226966    -1.0896192
H           6.2839690     0.7553339    -1.6293294
C          -0.9993873    -3.6785924    -0.4856639
H          -1.4081136    -4.6841927    -0.5388867
C          -1.1341928    -2.9253882     0.6816051
H          -1.6480555    -3.3426707     1.5437616
C          -0.6005623    -1.6371775     0.7476438
H          -0.7021106    -1.0568472     1.6629825
C           0.0672953    -1.0820754    -0.3501060
C           0.1986722    -1.8440057    -1.5163043
H           0.7297533    -1.4210418    -2.3639632
C          -0.3287599    -3.1338659    -1.5828373
H          -0.2138795    -3.7162504    -2.4934972
27
382_C13H13N_22-0-3-11 (-60,) energy =    -557.9590843
C           0.5438125     0.4123545    -0.0692446
H           0.6782396     0.5859821     1.0069563
H          -0.2636712     1.0890882    -0.3762068
N           1.7352028     0.8581095    -0.7677590
H           1.5724496     1.2141468    -1.6997171
C           5.5965635    -0.7615937    -0.2479715
H           6.5969193    -1.1627668    -0.1148592
C           4.5853753    -1.0530232     0.6674525
H           4.7952658    -1.6902432     1.5230470
C           3.2953882    -0.5477977     0.5039900
H           2.5248998    -0.8057929     1.2223385
C           2.9921681     0.2770754    -0.5938849
C           4.0160525     0.5658427    -1.5173704
H           3.7976860     1.2061695    -2.3703530
C           5.2969590     0.0526576    -1.3436806
H           6.0674178     0.2920649    -2.0725461
C          -0.8525363    -3.6535326    -0.6601565
H          -1.2158319    -4.6671708    -0.8066495
C          -1.1508080    -2.9629561     0.5160907
H          -1.7471807    -3.4370488     1.2914458
C          -0.6753903    -1.6647942     0.7029597
H          -0.9058522    -1.1348151     1.6256194
C           0.0967977    -1.0335596    -0.2802140
C           0.3909952    -1.7343096    -1.4540856
H           1.0040418    -1.2661035    -2.2191500
C          -0.0778825    -3.0354509    -1.6428230
H           0.1663137    -3.5678383    -2.5584633
27
382_C13H13N_22-0-3-11 (-45,) energy =    -557.9575696
C           0.4512052     0.5361488    -0.1604554
H           0.4191009     0.7688568     0.9133920
H          -0.3278990     1.1566118    -0.6193451
N           1.7183683     1.0083337    -0.7119475
H           1.6240796     1.4145623    -1.6339202
C           5.4399327    -0.9263762    -0.2303989
H           6.4049463    -1.4086451    -0.1054064
C           4.4193645    -1.1259740     0.7000577
H           4.5875306    -1.7691742     1.5603646
C           3.1758832    -0.5137806     0.5482054
H           2.3987490    -0.6869461     1.2846910
C           2.9262302     0.3195788    -0.5565462
C           3.9586685     0.5164773    -1.4928653
H           3.7827764     1.1618405    -2.3520524
C           5.1968066    -0.0969990    -1.3279141
H           5.9756589     0.0726303    -2.0673462
C          -0.6509449    -3.6282820    -0.6622025
H          -0.9397545    -4.6682936    -0.7882785
C          -0.9128826    -2.9669657     0.5380270
H          -1.4063907    -3.4895782     1.3533863
C          -0.5326034    -1.6331202     0.6978450
H          -0.7339786    -1.1243121     1.6388161
C           0.1067592    -0.9395695    -0.3355496
C           0.3635958    -1.6127669    -1.5360489
H           0.8722007    -1.0934227    -2.3442643
C          -0.0089355    -2.9466613    -1.6986077
H           0.2040406    -3.4557761    -2.6350143
27
382_C13H13N_22-0-3-11 (-30,) energy =    -557.9548273
C           0.3920272     0.5886568    -0.2326688
H           0.1870815     0.8759152     0.8089360
H          -0.3276831     1.1491159    -0.8411605
N           1.7210090     1.0837554    -0.6173144
H           1.6926303     1.6104576    -1.4809998
C           5.3613559    -1.0322630    -0.2903810
H           6.3059518    -1.5609931    -0.2025871
C           4.3429748    -1.2384366     0.6419719
H           4.4933384    -1.9308824     1.4666171
C           3.1277813    -0.5637281     0.5406882
H           2.3550662    -0.7319184     1.2829125
C           2.8994963     0.3332735    -0.5183025
C           3.9294457     0.5360315    -1.4554681
H           3.7705683     1.2295863    -2.2798155
C           5.1439361    -0.1346136    -1.3377334
H           5.9219423     0.0421569    -2.0764172
C          -0.5013295    -3.6338056    -0.6190627
H          -0.7387519    -4.6896827    -0.7175756
C          -0.8126028    -2.9508636     0.5565328
H          -1.2939720    -3.4720142     1.3799862
C          -0.4994147    -1.5955331     0.6811234
H          -0.7398439    -1.0680196     1.6021991
C           0.1216092    -0.9033914    -0.3637369
C           0.4272033    -1.5991045    -1.5409666
H           0.9198068    -1.0784132    -2.3582548
C           0.1220151    -2.9531023    -1.6681229
H           0.3713537    -3.4787070    -2.5862309
27
382_C13H13N_22-0-3-11 (-15,) energy =    -557.9518693
C           0.3449353     0.6092315    -0.3027377
H          -0.0215234     0.9578383     0.6739343
H          -0.2832571     1.1064138    -1.0524391
N           1.7185264     1.1067558    -0.5113864
H           1.7531073     1.7767187    -1.2690121
C           5.3318483    -1.0788519    -0.3728997
H           6.2703321    -1.6239403    -0.3312618
C           4.3088457    -1.3553986     0.5365480
H           4.4505206    -2.1187665     1.2977282
C           3.1035553    -0.6577102     0.4977733
H           2.3311302    -0.8744894     1.2271362
C           2.8849622     0.3312014    -0.4792627
C           3.9196032     0.6029634    -1.3940437
H           3.7694481     1.3660410    -2.1563950
C           5.1276859    -0.0874959    -1.3343481
H           5.9092623     0.1466223    -2.0530766
C          -0.4392759    -3.6434358    -0.5273680
H          -0.6492723    -4.7079874    -0.5875909
C          -0.8025030    -2.9185566     0.6071726
H          -1.2981643    -3.4151422     1.4372415
C          -0.5258227    -1.5513259     0.6810250
H          -0.8086393    -0.9905913     1.5695606
C           0.1113972    -0.8895778    -0.3738564
C           0.4686315    -1.6279684    -1.5107270
H           0.9715443    -1.1307617    -2.3362369
C           0.1990705    -2.9929408    -1.5868496
H           0.4868623    -3.5510887    -2.4738901
27
382_C13H13N_22-0-3-11 (0,) energy =    -557.9496692
C           1.5876665    -2.3014943     1.2595011
H           1.7236305    -3.3912814     1.2258441
H           1.1474511    -2.0798434     2.2417840
N           2.9334949    -1.6883122     1.1912564
H           3.6451334    -2.3805142     1.3896682
C           4.4566080     1.1252561    -1.5722896
H           4.8635814     1.8547496    -2.2665304
C           3.1847101     1.3000002    -1.0222208
H           2.5958534     2.1757895    -1.2839337
C           2.6567286     0.3774815    -0.1218197
H           1.6799536     0.5487390     0.3155317
C           3.3894565    -0.7708060     0.2336982
C           4.6689053    -0.9413928    -0.3283828
H           5.2514037    -1.8235200    -0.0665913
C           5.1974376    -0.0004142    -1.2092618
H           6.1906693    -0.1583492    -1.6225782
C          -1.3489067    -1.2785435    -1.7484702
H          -2.0933004    -1.0329143    -2.5011568
C          -0.1686161    -1.9309161    -2.1151838
H           0.0074423    -2.1940498    -3.1548248
C           0.7851334    -2.2477179    -1.1500096
H           1.7030803    -2.7510463    -1.4429233
C           0.5801656    -1.9141945     0.1963492
C          -0.6058427    -1.2625595     0.5517970
H          -0.7787629    -1.0011741     1.5935427
C          -1.5663584    -0.9458609    -0.4117297
H          -2.4817891    -0.4400438    -0.1161676
27
382_C13H13N_22-0-3-11 (15,) energy =    -557.9518694
C           1.5648911    -2.2241332     1.2976972
H           1.6081878    -3.3133161     1.4229538
H           1.1630124    -1.8295394     2.2423587
N           2.9582105    -1.7659400     1.1340310
H           3.6061591    -2.5414615     1.1857044
C           4.4432385     1.1637722    -1.5239074
H           4.8401784     1.9207225    -2.1940584
C           3.2126761     1.3496662    -0.8904679
H           2.6455340     2.2611463    -1.0629135
C           2.6974452     0.3888649    -0.0230417
H           1.7498872     0.5641031     0.4739766
C           3.4025351    -0.8053063     0.2162634
C           4.6410096    -0.9869736    -0.4274767
H           5.2021035    -1.9040239    -0.2537038
C           5.1554793    -0.0113926    -1.2779566
H           6.1161667    -0.1791877    -1.7587322
C          -1.3402338    -1.3633112    -1.7952548
H          -2.0771539    -1.1586027    -2.5672776
C          -0.1448823    -2.0108066    -2.1194095
H           0.0504529    -2.3112735    -3.1454575
C           0.8000420    -2.2737265    -1.1296501
H           1.7303869    -2.7716905    -1.3906400
C           0.5713558    -1.8898217     0.1991078
C          -0.6279617    -1.2412426     0.5116387
H          -0.8183944    -0.9377283     1.5390306
C          -1.5803832    -0.9798833    -0.4761870
H          -2.5061384    -0.4745482    -0.2136752
27
382_C13H13N_22-0-3-11 (30,) energy =    -557.9548277
C           1.5507421    -2.1503573     1.3155722
H           1.5087305    -3.2089363     1.5984411
H           1.2199393    -1.5925117     2.2037272
N           2.9671160    -1.8545458     1.0595338
H           3.5175680    -2.6978174     0.9595430
C           4.4643161     1.2002244    -1.4433115
H           4.8635780     1.9876251    -2.0758740
C           3.2711726     1.3874954    -0.7431405
H           2.7349895     2.3296839    -0.8262237
C           2.7512601     0.3848041     0.0732469
H           1.8282612     0.5570580     0.6160988
C           3.4174888    -0.8477802     0.1962827
C           4.6190674    -1.0310497    -0.5127959
H           5.1496916    -1.9780636    -0.4266527
C           5.1353264    -0.0177519    -1.3161264
H           6.0660485    -0.1873324    -1.8520128
C          -1.3669009    -1.4651859    -1.8146143
H          -2.1065183    -1.3033179    -2.5941820
C          -0.1734436    -2.1312146    -2.1053403
H           0.0177796    -2.4891458    -3.1136278
C           0.7755238    -2.3379700    -1.1056460
H           1.7052076    -2.8495453    -1.3417243
C           0.5526892    -1.8784173     0.1990804
C          -0.6440736    -1.2102024     0.4779991
H          -0.8286793    -0.8455975     1.4866588
C          -1.6007416    -1.0055672    -0.5187530
H          -2.5239608    -0.4828076    -0.2825216
27
382_C13H13N_22-0-3-11 (45,) energy =    -557.9575695
C           1.5433553    -2.0441534     1.3004705
H           1.4414338    -3.0459611     1.7346544
H           1.3039631    -1.3445061     2.1138391
N           2.9532480    -1.8998023     0.9482457
H           3.4042103    -2.7820214     0.7426421
C           4.5647989     1.2518823    -1.3526730
H           4.9932843     2.0625782    -1.9345815
C           3.3740019     1.4344799    -0.6485184
H           2.8671905     2.3958939    -0.6793037
C           2.8134882     0.4001497     0.0998414
H           1.8859459     0.5673553     0.6365338
C           3.4425871    -0.8562150     0.1552093
C           4.6428211    -1.0353768    -0.5580432
H           5.1442588    -2.0012521    -0.5223974
C           5.1944458     0.0060446    -1.2981220
H           6.1222911    -0.1612119    -1.8396835
C          -1.4644263    -1.5844174    -1.7898814
H          -2.2257135    -1.4778385    -2.5580050
C          -0.2598641    -2.2296346    -2.0791742
H          -0.0805824    -2.6269104    -3.0748896
C           0.7177872    -2.3644274    -1.0940315
H           1.6564933    -2.8587223    -1.3309217
C           0.5118406    -1.8530819     0.1929997
C          -0.6963742    -1.2044790     0.4707661
H          -0.8683235    -0.7971642     1.4654596
C          -1.6808391    -1.0720481    -0.5103397
H          -2.6120789    -0.5626980    -0.2761772
27
382_C13H13N_22-0-3-11 (60,) energy =    -557.9590843
C           1.9106491    -2.7525950     0.3825089
H           1.9919967    -3.8445847     0.3109073
H           1.8504059    -2.5329576     1.4570811
N           3.1555575    -2.2174385    -0.1365491
H           3.5608074    -2.7451120    -0.8973531
C           4.2119674     1.8668966    -0.1752221
H           4.4992943     2.9141578    -0.1805682
C           3.1337353     1.4295510     0.5938494
H           2.5703541     2.1404284     1.1933759
C           2.7517358     0.0879309     0.6047675
H           1.8982534    -0.2198521     1.1989127
C           3.4585017    -0.8557598    -0.1619100
C           4.5447893    -0.4083174    -0.9394390
H           5.1042494    -1.1274476    -1.5353700
C           4.9126739     0.9328569    -0.9433812
H           5.7552243     1.2497859    -1.5531775
C          -1.8268375    -1.5874252    -1.4888588
H          -2.7683013    -1.3088127    -1.9546117
C          -1.7941885    -1.9778085    -0.1488017
H          -2.7107316    -2.0033900     0.4350574
C          -0.5820142    -2.3269925     0.4471144
H          -0.5627883    -2.6236510     1.4944491
C           0.6122720    -2.2993760    -0.2835734
C           0.5689090    -1.9056888    -1.6248192
H           1.4892300    -1.8613586    -2.2005866
C          -0.6407273    -1.5500654    -2.2235698
H          -0.6549933    -1.2398236    -3.2652189
27
382_C13H13N_22-0-3-11 (75,) energy =    -557.9599112
C           1.9234736    -2.7227597     0.1280934
H           2.0276413    -3.8065126    -0.0073032
H           1.9553084    -2.5426875     1.2164024
N           3.0588382    -2.1153860    -0.5445452
H           3.8213846    -2.7477937    -0.7402022
C           4.3234933     1.8725870     0.0045026
H           4.6567180     2.8977788     0.1363379
C           3.0747332     1.4647670     0.4716367
H           2.4242574     2.1767637     0.9738016
C           2.6353269     0.1497811     0.3101179
H           1.6548069    -0.1363408     0.6728896
C           3.4529524    -0.7928909    -0.3382094
C           4.7139535    -0.3756521    -0.8091909
H           5.3565682    -1.0947565    -1.3143025
C           5.1394413     0.9368409    -0.6382422
H           6.1182023     1.2301139    -1.0099898
C          -1.9933711    -1.6148761    -1.3560519
H          -2.9799064    -1.3501745    -1.7272233
C          -1.8124505    -1.9353381    -0.0097155
H          -2.6575858    -1.9201718     0.6736823
C          -0.5423055    -2.2671427     0.4647505
H          -0.4052828    -2.5091235     1.5171797
C           0.5601668    -2.2900664    -0.3973355
C           0.3701549    -1.9668734    -1.7453985
H           1.2271190    -1.9693285    -2.4125270
C          -0.8971382    -1.6292963    -2.2211796
H          -1.0286474    -1.3747376    -3.2698029
27
382_C13H13N_22-0-3-11 (90,) energy =    -557.9601835
C           1.8667711    -2.5830274     0.1237806
H           2.0133303    -3.6709613     0.1165339
H           1.9293902    -2.2717778     1.1782904
N           2.9540508    -2.0066489    -0.6565375
H           3.6791926    -2.6702383    -0.8929436
C           4.5045015     1.8437260     0.1098509
H           4.9075033     2.8344546     0.2982062
C           3.2087641     1.5166961     0.5090715
H           2.5910960     2.2576961     1.0106219
C           2.6802240     0.2473281     0.2720000
H           1.6610909     0.0250265     0.5698822
C           3.4549784    -0.7311561    -0.3758933
C           4.7611113    -0.3953420    -0.7801916
H           5.3718257    -1.1420515    -1.2849132
C           5.2744745     0.8749635    -0.5399240
H           6.2874509     1.1071410    -0.8593749
C          -2.1361897    -1.8430155    -1.3613829
H          -3.1436580    -1.6704482    -1.7306157
C          -1.9226661    -2.1259663    -0.0108566
H          -2.7629492    -2.1725011     0.6771610
C          -0.6272453    -2.3399592     0.4611336
H          -0.4662208    -2.5526778     1.5166309
C           0.4700477    -2.2823439    -0.4071707
C           0.2478600    -1.9951358    -1.7576324
H           1.1001207    -1.9325849    -2.4274851
C          -1.0466132    -1.7756702    -2.2315323
H          -1.2035301    -1.5484591    -3.2829865
27
382_C13H13N_22-0-3-11 (105,) energy =    -557.9592095
C           1.7731810    -2.3603021     0.1996753
H           1.9763601    -3.4222440     0.3939602
H           1.8057365    -1.8663928     1.1806502
N           2.8441200    -1.8489803    -0.6476779
H           3.4847032    -2.5628363    -0.9673121
C           4.7737353     1.8307556     0.0928062
H           5.2727390     2.7779249     0.2750600
C           3.4457548     1.6420797     0.4769084
H           2.8990840     2.4498139     0.9573368
C           2.7946964     0.4307417     0.2446105
H           1.7502289     0.3185214     0.5182632
C           3.4764508    -0.6323344    -0.3750289
C           4.8144904    -0.4357091    -0.7648071
H           5.3553196    -1.2484305    -1.2467323
C           5.4493084     0.7811754    -0.5352483
H           6.4845073     0.9058192    -0.8432686
C          -2.2403787    -2.0783626    -1.4148693
H          -3.2497126    -2.0149967    -1.8128029
C          -2.0282535    -2.5121323    -0.1034214
H          -2.8726070    -2.7867697     0.5237577
C          -0.7328556    -2.5890775     0.4053384
H          -0.5753842    -2.9243042     1.4294080
C           0.3700611    -2.2396466    -0.3859950
C           0.1497905    -1.8055089    -1.6951788
H           1.0041941    -1.5284118    -2.3047416
C          -1.1481368    -1.7246161    -2.2066373
H          -1.3034950    -1.3821966    -3.2266791
27
382_C13H13N_22-0-3-11 (120,) energy =    -557.9586410
C           1.4236835    -1.7762956     0.7043409
H           1.5013850    -2.5537820     1.4773740
H           1.2536959    -0.8296911     1.2294853
N           2.6732526    -1.6644481    -0.0435463
H           2.6736638    -2.1902766    -0.9078220
C           5.1778730     1.7315212    -0.1779341
H           5.8305386     2.5984732    -0.2182727
C           4.3801282     1.4921416     0.9410727
H           4.4135849     2.1737831     1.7876048
C           3.5430021     0.3784944     1.0060952
H           2.9646571     0.2001485     1.9071464
C           3.4725949    -0.5246644    -0.0721019
C           4.2852626    -0.2783330    -1.1979154
H           4.2471847    -0.9664705    -2.0404940
C           5.1252494     0.8292458    -1.2438409
H           5.7382161     0.9923118    -2.1269756
C          -1.9806815    -2.6104586    -1.8377989
H          -2.8355499    -2.8181583    -2.4757386
C          -1.6877029    -3.4491866    -0.7627588
H          -2.3116983    -4.3158200    -0.5606101
C          -0.5857955    -3.1814211     0.0531835
H          -0.3568228    -3.8407793     0.8876228
C           0.2319933    -2.0728852    -0.1894739
C          -0.0699108    -1.2370140    -1.2749420
H           0.5610505    -0.3744066    -1.4757874
C          -1.1674056    -1.5023819    -2.0922741
H          -1.3908095    -0.8432428    -2.9271633
27
382_C13H13N_22-0-3-11 (135,) energy =    -557.9590870
C           1.3521608    -1.5598436     0.6220141
H           1.4660027    -2.2375856     1.4805594
H           1.1518730    -0.5614750     1.0333747
N           2.5798398    -1.5018225    -0.1665438
H           2.5170107    -1.9590968    -1.0658828
C           5.3941439     1.6372122    -0.0401829
H           6.1244772     2.4404009    -0.0134966
C           4.5546694     1.4023341     1.0484206
H           4.6323487     2.0228759     1.9379785
C           3.6161859     0.3702726     1.0267547
H           3.0010294     0.1894974     1.9025434
C           3.4876583    -0.4511558    -0.1098172
C           4.3439991    -0.2119302    -1.2045745
H           4.2620159    -0.8396062    -2.0901431
C           5.2815996     0.8138984    -1.1645709
H           5.9260859     0.9757564    -2.0252331
C          -2.0307683    -2.7988023    -1.7751363
H          -2.8805084    -3.1073207    -2.3781826
C          -1.6164861    -3.5788718    -0.6958692
H          -2.1402785    -4.5002934    -0.4554833
C          -0.5228518    -3.1799601     0.0766081
H          -0.1998865    -3.7928163     0.9151107
C           0.1658964    -1.9981775    -0.2152562
C          -0.2579244    -1.2216345    -1.3041540
H           0.2699478    -0.3005217    -1.5408213
C          -1.3474763    -1.6175743    -2.0780489
H          -1.6673338    -1.0028960    -2.9154008
27
382_C13H13N_22-0-3-11 (150,) energy =    -557.9598739
C           1.1621150    -1.1373117     0.4859501
H           1.2127806    -1.5407518     1.5068630
H           0.9620873    -0.0593963     0.5785868
N           2.4427091    -1.3602807    -0.1961066
H           2.3258022    -1.7382404    -1.1281460
C           5.6404877     1.3805543     0.0627397
H           6.4704952     2.0779489     0.1269269