21
220_C8H10O2S_4-5-16-17 (-165,) energy =    -859.4457650
C           0.8049520    -1.3671228     0.9025585
H          -0.1596010    -1.4126032     0.3912615
H           0.9777651    -0.3591361     1.2850538
H           0.8401591    -2.1099743     1.7020464
S           2.0428715    -1.7638394    -0.3599694
C           3.6040376    -1.6286676     0.5836144
H           3.6051056    -0.6044595     0.9772440
H           3.5001138    -2.3180014     1.4282210
O           1.8429568    -3.1649332    -0.7595524
O           2.0020891    -0.6879116    -1.3650799
C           7.3514264    -2.3421690    -1.4562920
H           8.3043649    -2.5134108    -1.9494455
C           6.2010119    -2.1124600    -2.2095787
H           6.2535471    -2.1008318    -3.2947696
C           4.9729622    -1.8878510    -1.5835573
H           4.0962176    -1.6849715    -2.1876609
C           4.8812371    -1.9123215    -0.1870660
C           6.0443871    -2.1335123     0.5644935
H           5.9876593    -2.1465528     1.6510300
C           7.2704794    -2.3471416    -0.0626023
H           8.1594875    -2.5206446     0.5377832
21
220_C8H10O2S_4-5-16-17 (-150,) energy =    -859.4474647
C           0.8073736    -1.3945922     0.9253470
H          -0.1593182    -1.5611657     0.4441128
H           0.9171585    -0.3403805     1.1878853
H           0.9049224    -2.0374735     1.8025023
S           2.0527907    -1.8494751    -0.3102159
C           3.6189846    -1.4934776     0.5723931
H           3.5756710    -0.4186281     0.7890337
H           3.5620837    -2.0380944     1.5199897
O           1.9490674    -3.2976812    -0.5414852
O           1.9184245    -0.9010716    -1.4301875
C           7.3346721    -2.3842606    -1.4467112
H           8.2801802    -2.5948821    -1.9389860
C           6.2205553    -2.0063362    -2.1967041
H           6.2954949    -1.9194555    -3.2772025
C           5.0040700    -1.7295130    -1.5715486
H           4.1511501    -1.4179780    -2.1646093
C           4.8840322    -1.8526468    -0.1807735
C           6.0096666    -2.2236400     0.5669611
H           5.9309159    -2.3139420     1.6481962
C           7.2273225    -2.4875541    -0.0592811
H           8.0879868    -2.7781650     0.5370710
21
220_C8H10O2S_4-5-16-17 (-135,) energy =    -859.4490871
C           0.8054369    -1.4614622     0.8846356
H          -0.1485026    -1.7546421     0.4398479
H           0.8415859    -0.3772544     1.0096093
H           0.9500589    -1.9782762     1.8355481
S           2.0791264    -1.9828438    -0.2950033
C           3.6226613    -1.4050973     0.5154491
H           3.5103213    -0.3161328     0.5820912
H           3.6078196    -1.8202143     1.5275284
O           2.0802091    -3.4522698    -0.3352877
O           1.8764059    -1.1985408    -1.5262925
C           7.3263710    -2.4059280    -1.4645421
H           8.2679361    -2.6445478    -1.9516315
C           6.2617121    -1.8929014    -2.2078077
H           6.3714596    -1.7310057    -3.2766391
C           5.0523345    -1.5795037    -1.5882917
H           4.2310742    -1.1775169    -2.1722499
C           4.8891198    -1.7956568    -0.2120551
C           5.9630121    -2.3064239     0.5277476
H           5.8497495    -2.4733763     1.5964995
C           7.1751755    -2.6091175    -0.0927217
H           7.9972627    -3.0068034     0.4961296
21
220_C8H10O2S_4-5-16-17 (-120,) energy =    -859.4503117
C           0.8113376    -1.4891270     0.8737145
H          -0.1201252    -1.8961783     0.4731103
H           0.7803196    -0.3977249     0.8548902
H           0.9809621    -1.8660831     1.8843880
S           2.1236883    -2.0813896    -0.2274544
C           3.6293808    -1.3043649     0.4900275
H           3.4524860    -0.2253968     0.4171193
H           3.6477058    -1.5913263     1.5453452
O           2.2206672    -3.5392409    -0.0665167
O           1.8835169    -1.4852274    -1.5530816
C           7.2993215    -2.4336887    -1.4739400
H           8.2302290    -2.7089744    -1.9621921
C           6.2952240    -1.7825506    -2.1938923
H           6.4418870    -1.5517014    -3.2454525
C           5.1013505    -1.4223795    -1.5707567
H           4.3203322    -0.9230885    -2.1351624
C           4.8949498    -1.7216373    -0.2159135
C           5.9053153    -2.3757715     0.4989097
H           5.7529968    -2.6125066     1.5492088
C           7.1023393    -2.7286658    -0.1247175
H           7.8774477    -3.2353318     0.4437134
21
220_C8H10O2S_4-5-16-17 (-105,) energy =    -859.4510316
C           0.8199091    -1.5090264     0.8639755
H          -0.0811206    -2.0287008     0.5295065
H           0.7185935    -0.4358405     0.6893021
H           1.0076361    -1.7253943     1.9176886
S           2.1751254    -2.1658533    -0.1446925
C           3.6325679    -1.2134192     0.4584361
H           3.3947424    -0.1635907     0.2584731
H           3.6753909    -1.3742321     1.5395227
O           2.3590238    -3.5786415     0.2185389
O           1.9164310    -1.7727238    -1.5398003
C           7.2685246    -2.4636620    -1.4853131
H           8.1875637    -2.7758148    -1.9738600
C           6.3407489    -1.6794908    -2.1742848
H           6.5335650    -1.3823620    -3.2014365
C           5.1630277    -1.2739541    -1.5485813
H           4.4370920    -0.6747644    -2.0899205
C           4.9002510    -1.6511465    -0.2239642
C           5.8315863    -2.4432923     0.4579965
H           5.6302576    -2.7480628     1.4818645
C           7.0114323    -2.8453556    -0.1678537
H           7.7272842    -3.4577334     0.3734875
21
220_C8H10O2S_4-5-16-17 (-90,) energy =    -859.4512575
C           0.8250063    -1.5391989     0.8782012
H          -0.0431213    -2.1583848     0.6399889
H           0.6566013    -0.5141163     0.5415372
H           1.0292828    -1.5779683     1.9501953
S           2.2156533    -2.2601554    -0.0339268
C           3.6203298    -1.1546818     0.4155049
H           3.3217497    -0.1509730     0.0982632
H           3.6878549    -1.1854372     1.5071113
O           2.4773280    -3.5918154     0.5338803
O           1.9410832    -2.0913203    -1.4694751
C           7.2502106    -2.4693924    -1.4915176
H           8.1659985    -2.8014892    -1.9729811
C           6.4040891    -1.5692097    -2.1419328
H           6.6566499    -1.2015346    -3.1326227
C           5.2303074    -1.1406230    -1.5234814
H           4.5663787    -0.4495802    -2.0355001
C           4.8943265    -1.6033673    -0.2445860
C           5.7417003    -2.5158271     0.3970141
H           5.4755739    -2.8946552     1.3800312
C           6.9155002    -2.9438575    -0.2218742
H           7.5668618    -3.6491855     0.2867424
21
220_C8H10O2S_4-5-16-17 (-75,) energy =    -859.4510556
C           0.8289541    -1.5376742     0.8906139
H          -0.0065467    -2.2341571     0.7872572
H           0.6025780    -0.6022291     0.3748381
H           1.0450579    -1.3680370     1.9474993
S           2.2472628    -2.3426683     0.0994094
C           3.6042183    -1.1223684     0.3547678
H           3.2500429    -0.1795715    -0.0721900
H           3.6953757    -1.0152298     1.4405686
O           2.5625001    -3.5488841     0.8824790
O           1.9648003    -2.4315359    -1.3407539
C           7.2528930    -2.4599280    -1.5043943
H           8.1725070    -2.7980343    -1.9742624
C           6.4908109    -1.4541396    -2.1004552
H           6.8117512    -1.0081398    -3.0377771
C           5.3105718    -1.0216852    -1.4962166
H           4.7139534    -0.2447114    -1.9674246
C           4.8863798    -1.5809347    -0.2846426
C           5.6508245    -2.5987059     0.3031111
H           5.3147733    -3.0551039     1.2293292
C           6.8284972    -3.0325790    -0.3035031
H           7.4139761    -3.8208541     0.1615553
21
220_C8H10O2S_4-5-16-17 (-60,) energy =    -859.4502543
C           0.8160790    -1.5274453     0.9029269
H           0.0064742    -2.2602441     0.9397960
H           0.5465296    -0.7042150     0.2381690
H           1.0419211    -1.1698744     1.9097026
S           2.2506918    -2.4095266     0.2324638
C           3.5626164    -1.1196059     0.2666519
H           3.1594265    -0.2589248    -0.2747599
H           3.6677697    -0.8557827     1.3252438
O           2.6087425    -3.4596965     1.2016613
O           1.9549404    -2.7487283    -1.1668351
C           7.2750912    -2.4342023    -1.4920722
H           8.2112710    -2.7605933    -1.9368279
C           6.5880633    -1.3442917    -2.0272326
H           6.9835816    -0.8191145    -2.8923142
C           5.3841772    -0.9303606    -1.4568323
H           4.8465952    -0.0868528    -1.8833527
C           4.8626026    -1.5886604    -0.3366686
C           5.5532374    -2.6899105     0.1908110
H           5.1441536    -3.2222399     1.0434094
C           6.7523247    -3.1066682    -0.3853394
H           7.2781452    -3.9615033     0.0310071
21
220_C8H10O2S_4-5-16-17 (-45,) energy =    -859.4488749
C           0.8102224    -1.5110508     0.9242770
H           0.0256283    -2.2519643     1.0952776
H           0.5045243    -0.8153710     0.1401977
H           1.0394751    -0.9883767     1.8552332
S           2.2612333    -2.4495398     0.3772683
C           3.5248651    -1.1310405     0.1807639
H           3.0727071    -0.3687485    -0.4606126
H           3.6426289    -0.7132407     1.1882870
O           2.6641265    -3.3175732     1.4982393
O           1.9538914    -3.0234195    -0.9405804
C           7.2942735    -2.4081582    -1.4979653
H           8.2443731    -2.7189850    -1.9239032
C           6.6688533    -1.2465850    -1.9517902
H           7.1261175    -0.6483119    -2.7352103
C           5.4451909    -0.8559895    -1.4081750
H           4.9561170     0.0431986    -1.7759008
C           4.8410908    -1.6069602    -0.3916774
C           5.4710384    -2.7776270     0.0547383
H           5.0068418    -3.3779565     0.8300676
C           6.6891625    -3.1719009    -0.4984217
H           7.1652541    -4.0827293    -0.1457511
21
220_C8H10O2S_4-5-16-17 (-30,) energy =    -859.4472117
C           0.8157694    -1.5070089     0.9488724
H           0.0649444    -2.2442213     1.2431528
H           0.4571083    -0.9262218     0.0966738
H           1.0597724    -0.8638809     1.7969143
S           2.2772997    -2.4648008     0.4680520
C           3.4807498    -1.1454486     0.0578724
H           2.9892563    -0.5096157    -0.6848835
H           3.5842054    -0.5708748     0.9874296
O           2.7468394    -3.1722516     1.6724010
O           1.9443582    -3.2113191    -0.7540414
C           7.3289582    -2.3884281    -1.4730747
H           8.2969639    -2.6862465    -1.8666710
C           6.7580031    -1.1748133    -1.8586354
H           7.2755697    -0.5220496    -2.5563974
C           5.5105720    -0.8022653    -1.3596264
H           5.0645273     0.1378011    -1.6771184
C           4.8259948    -1.6231412    -0.4528817
C           5.4022502    -2.8426804    -0.0737900
H           4.8889396    -3.4929470     0.6259485
C           6.6454597    -3.2186118    -0.5845188
H           7.0786008    -4.1685878    -0.2836093
21
220_C8H10O2S_4-5-16-17 (-15,) energy =    -859.4456366
C           0.8117283    -1.4661613     0.9970844
H           0.0856304    -2.1827236     1.3884761
H           0.4147552    -0.9827993     0.1020405
H           1.0676910    -0.7350543     1.7665436
S           2.2762159    -2.4440171     0.5697502
C           3.4188001    -1.1608095    -0.0574414
H           2.8913987    -0.6760412    -0.8857072
H           3.5036610    -0.4365210     0.7626222
O           2.8194081    -2.9898869     1.8252128
O           1.9083884    -3.3413533    -0.5358066
C           7.3374245    -2.3747637    -1.4334770
H           8.3222706    -2.6613863    -1.7919927
C           6.8121950    -1.1203758    -1.7494275
H           7.3837206    -0.4237740    -2.3568841
C           5.5448261    -0.7614250    -1.2946714
H           5.1369445     0.2128724    -1.5561058
C           4.7888971    -1.6398656    -0.5047745
C           5.3206040    -2.8963020    -0.1925796
H           4.7630675    -3.5898563     0.4261167
C           6.5871105    -3.2571965    -0.6578090
H           6.9848269    -4.2369662    -0.4080198
21
220_C8H10O2S_4-5-16-17 (0,) energy =    -859.4448538
C           0.8127768    -1.4596476     1.0110771
H           0.1311854    -2.1449973     1.5205766
H           0.3792358    -1.1380796     0.0619162
H           1.0383741    -0.6082936     1.6564987
S           2.3219219    -2.4145212     0.7048014
C           3.3813009    -1.1880579    -0.1400933
H           2.8030160    -0.8572169    -1.0107360
H           3.4589857    -0.3450684     0.5564026
O           2.9176487    -2.7372677     2.0109123
O           1.9849843    -3.4869844    -0.2446561
C           7.3469499    -2.3659597    -1.4111094
H           8.3461912    -2.6396657    -1.7384677
C           6.8641211    -1.0744106    -1.6314289
H           7.4839346    -0.3348589    -2.1312394
C           5.5820432    -0.7291969    -1.2093526
H           5.2130793     0.2794542    -1.3844845
C           4.7611778    -1.6644840    -0.5618854
C           5.2510090    -2.9565481    -0.3441224
H           4.6424076    -3.7029450     0.1523820
C           6.5369525    -3.3003130    -0.7682647
H           6.9018832    -4.3082703    -0.5914481
21
220_C8H10O2S_4-5-16-17 (15,) energy =    -859.4456365
C           0.8205437    -1.4601690     1.0171651
H           0.1900152    -2.1010086     1.6381567
H           0.3501930    -1.3021104     0.0445984
H           1.0101932    -0.5141468     1.5284446
S           2.3748603    -2.3673102     0.8057355
C           3.3434360    -1.2210681    -0.2399412
H           2.7197715    -1.0572502    -1.1279180
H           3.3915217    -0.2809925     0.3196334
O           3.0155766    -2.4710911     2.1253913
O           2.0716294    -3.5792133     0.0256633
C           7.3585290    -2.3583023    -1.3839424
H           8.3718922    -2.6222722    -1.6738136
C           6.9124164    -1.0412665    -1.5087389
H           7.5757416    -0.2718754    -1.8946636
C           5.6147151    -0.7064696    -1.1269486
H           5.2787773     0.3247288    -1.2149340
C           4.7370147    -1.6814203    -0.6308432
C           5.1907217    -2.9996103    -0.5071062
H           4.5296905    -3.7752184    -0.1381645
C           6.4949788    -3.3304911    -0.8814841
H           6.8323067    -4.3580798    -0.7776223
21
220_C8H10O2S_4-5-16-17 (30,) energy =    -859.4472134
C           0.8348306    -1.4182359     1.0246934
H           0.2446730    -2.0166017     1.7228874
H           0.3295649    -1.3658990     0.0580977
H           1.0098561    -0.4232363     1.4388476
S           2.4116583    -2.2932388     0.8439516
C           3.2915617    -1.2471025    -0.3760906
H           2.6509601    -1.2679357    -1.2671367
H           3.2776999    -0.2316124     0.0317098
O           3.1136600    -2.2251553     2.1339136
O           2.1166767    -3.5955457     0.2205710
C           7.3658228    -2.3353969    -1.3332561
H           8.3927319    -2.5935866    -1.5771260
C           6.9466463    -1.0049738    -1.3759082
H           7.6449633    -0.2189081    -1.6503116
C           5.6306227    -0.6782548    -1.0514072
H           5.3157881     0.3628741    -1.0710849
C           4.7091448    -1.6747937    -0.7014491
C           5.1374170    -3.0079443    -0.6556356
H           4.4404790    -3.7940851    -0.3867450
C           6.4586161    -3.3304612    -0.9691195
H           6.7768583    -4.3684773    -0.9263391
21
220_C8H10O2S_4-5-16-17 (45,) energy =    -859.4488753
C           0.8387801    -1.4130505     1.0378317
H           0.3036317    -1.9456865     1.8275677
H           0.2992891    -1.5061109     0.0929954
H           0.9764696    -0.3667477     1.3180110
S           2.4522561    -2.2277420     0.9026222
C           3.2376482    -1.3068141    -0.4787746
H           2.5863864    -1.4978391    -1.3407248
H           3.1660693    -0.2469081    -0.2174485
O           3.1956941    -1.9610712     2.1423413
O           2.2030972    -3.6112198     0.4597619
C           7.3526043    -2.3371145    -1.2924389
H           8.3894833    -2.5858542    -1.5015575
C           6.9503761    -1.0026100    -1.2323648
H           7.6712402    -0.2051326    -1.3909470
C           5.6201937    -0.6874592    -0.9551939
H           5.3154051     0.3549148    -0.8959295
C           4.6717981    -1.6987550    -0.7556692
C           5.0840413    -3.0380972    -0.8095816
H           4.3637236    -3.8315567    -0.6406530
C           6.4170125    -3.3502455    -1.0759096
H           6.7241516    -4.3918897    -1.1120344
21
220_C8H10O2S_4-5-16-17 (60,) energy =    -859.4502542
C           0.8561836    -1.4194314     1.0481361
H           0.3853453    -1.8718490     1.9241770
H           0.3013372    -1.6868531     0.1464138
H           0.9171128    -0.3363705     1.1727418
S           2.5261413    -2.1198125     0.9675020
C           3.2067433    -1.3512614    -0.5598108
H           2.5483206    -1.6985538    -1.3642382
H           3.0813040    -0.2711702    -0.4407154
O           3.2785123    -1.6198008     2.1269876
O           2.3812838    -3.5668560     0.7318441
C           7.3458301    -2.3460637    -1.2565807
H           8.3891528    -2.5924370    -1.4342354
C           6.9601231    -1.0172839    -1.0779401
H           7.7009413    -0.2231665    -1.1123045
C           5.6205066    -0.7050108    -0.8456824
H           5.3259116     0.3310699    -0.6968331
C           4.6497339    -1.7131912    -0.8063538
C           5.0453510    -3.0482068    -0.9770680
H           4.3042187    -3.8390665    -0.9234029
C           6.3857631    -3.3587108    -1.2015961
H           6.6806589    -4.3963662    -1.3314421
21
220_C8H10O2S_4-5-16-17 (75,) energy =    -859.4510550
C           0.8708340    -1.4239878     1.0519159
H           0.4631496    -1.7709720     2.0044018
H           0.3148248    -1.8685811     0.2238453
H           0.8457162    -0.3331997     1.0088728
S           2.5901307    -1.9965814     1.0095301
C           3.1751137    -1.4107079    -0.6367689
H           2.5211207    -1.8998906    -1.3659605
H           2.9952244    -0.3318978    -0.6576350
O           3.3290749    -1.2705551     2.0528771
O           2.5638296    -3.4684670     0.9889012
C           7.3360408    -2.3594790    -1.2232491
H           8.3858498    -2.5986591    -1.3697875
C           6.9515560    -1.0526729    -0.9197426
H           7.7000061    -0.2707697    -0.8251898
C           5.6037930    -0.7473918    -0.7315470
H           5.3077641     0.2693487    -0.4860046
C           4.6259716    -1.7417537    -0.8567512
C           5.0200143    -3.0547446    -1.1508417
H           4.2696167    -3.8361905    -1.2240757
C           6.3677003    -3.3594579    -1.3353152
H           6.6617112    -4.3799978    -1.5644525
21
220_C8H10O2S_4-5-16-17 (90,) energy =    -859.4512567
C           0.8718918    -1.4242157     1.0249796
H           0.5073384    -1.6240298     2.0354047
H           0.3439584    -2.0534804     0.3054734
H           0.7552211    -0.3645182     0.7884450
S           2.6321606    -1.8565425     1.0367163
C           3.1616945    -1.4740828    -0.6867207
H           2.5187444    -2.0740899    -1.3376523
H           2.9412563    -0.4128858    -0.8366153
O           3.3139605    -0.9195773     1.9433503
O           2.7316115    -3.3104114     1.2381135
C           7.3380360    -2.3748093    -1.2232402
H           8.3919072    -2.6024576    -1.3585487
C           6.9457290    -1.1099916    -0.7809718
H           7.6929621    -0.3509124    -0.5667841
C           5.5933543    -0.8170019    -0.6101880
H           5.2897519     0.1635484    -0.2540170
C           4.6189747    -1.7849035    -0.8865752
C           5.0199820    -3.0558198    -1.3182229
H           4.2708096    -3.8181978    -1.5137482
C           6.3726126    -3.3476964    -1.4889085
H           6.6721007    -4.3356749    -1.8274655
21
220_C8H10O2S_4-5-16-17 (105,) energy =    -859.4510321
C           0.8670133    -1.3994960     1.0279835
H           0.5189296    -1.4722925     2.0611039
H           0.3732730    -2.1544755     0.4126627
H           0.6885760    -0.3930348     0.6437014
S           2.6493284    -1.7251132     1.0804966
C           3.1480570    -1.5581462    -0.6852937
H           2.5220516    -2.2582428    -1.2459587
H           2.8838189    -0.5331822    -0.9652432
O           3.2750162    -0.6291603     1.8388153
O           2.8364768    -3.1256749     1.4869802
C           7.3421415    -2.3731054    -1.2396313
H           8.3995962    -2.5776840    -1.3835514
C           6.9333878    -1.1684863    -0.6632498
H           7.6719175    -0.4341137    -0.3538460
C           5.5772676    -0.9019059    -0.4818114
H           5.2615414     0.0295740    -0.0217055
C           4.6137257    -1.8414907    -0.8750154
C           5.0310007    -3.0498974    -1.4457112
H           4.2904260    -3.7876792    -1.7439910
C           6.3881015    -3.3137477    -1.6300856
H           6.6987113    -4.2542441    -2.0767130
21
220_C8H10O2S_4-5-16-17 (120,) energy =    -859.4503118
C           0.8094838    -1.3750615     0.9450778
H          -0.0262945    -0.8486615     0.4779825
H           1.0825697    -0.8870672     1.8829534
H           0.5491228    -2.4238913     1.1020577
S           2.1859716    -1.2570753    -0.2283650
C           3.5137436    -2.2120276     0.6147016
H           3.6218590    -1.7715691     1.6100452
H           3.1113964    -3.2262731     0.7155871
O           1.7888760    -1.9911403    -1.4423802
O           2.5920526     0.1536378    -0.3033567
C           7.2822144    -2.2155482    -1.4823816
H           8.2358586    -2.2258775    -2.0031430
C           6.1437471    -2.7445958    -2.0943354
H           6.2081838    -3.1658029    -3.0938549
C           4.9189607    -2.7388819    -1.4286660
H           4.0349183    -3.1441630    -1.9103617
C           4.8184431    -2.1908879    -0.1412414
C           5.9636452    -1.6611724     0.4651158
H           5.8946955    -1.2333570     1.4624104
C           7.1900294    -1.6745670    -0.1997588
H           8.0702343    -1.2603491     0.2842740
21
220_C8H10O2S_4-5-16-17 (135,) energy =    -859.4490880
C           0.7999348    -1.3957426     0.9580519
H          -0.0837175    -0.9850078     0.4638418
H           1.0756375    -0.7729567     1.8114859
H           0.6122700    -2.4280167     1.2607949
S           2.1212806    -1.3538511    -0.2820820
C           3.5294079    -2.1119254     0.6211187
H           3.6307545    -1.5487308     1.5535284
H           3.1910238    -3.1273554     0.8604430
O           1.7219662    -2.2627945    -1.3714323
O           2.4329859     0.0556041    -0.5597567
C           7.3049544    -2.2505736    -1.4686077
H           8.2621096    -2.2984371    -1.9807867
C           6.1354401    -2.6355812    -2.1267941
H           6.1795249    -2.9842828    -3.1549426
C           4.9045930    -2.5816517    -1.4734746
H           4.0005495    -2.8862188    -1.9902429
C           4.8291769    -2.1204590    -0.1510151
C           6.0069876    -1.7400890     0.5043283
H           5.9609782    -1.3856743     1.5315567
C           7.2381562    -1.8051486    -0.1483539
H           8.1417599    -1.5039212     0.3746043
21
220_C8H10O2S_4-5-16-17 (150,) energy =    -859.4474642
C           0.7889871    -1.4216134     0.9617427
H          -0.1287776    -1.1225082     0.4497830
H           1.0457267    -0.6885124     1.7291277
H           0.6712130    -2.4206683     1.3863696
S           2.0740716    -1.4488314    -0.3158746
C           3.5462693    -1.9934519     0.6301411
H           3.6346940    -1.3029200     1.4745777
H           3.2736442    -2.9823431     1.0198628
O           1.7104160    -2.5092981    -1.2724127
O           2.2809724    -0.0675690    -0.7751806
C           7.3157006    -2.2852052    -1.4638453
H           8.2719650    -2.3714377    -1.9725734
C           6.1275889    -2.5244759    -2.1550274
H           6.1547464    -2.8002588    -3.2056789
C           4.8957936    -2.4205879    -1.5075704
H           3.9810176    -2.6278132    -2.0520062
C           4.8399858    -2.0497263    -0.1572898
C           6.0377699    -1.8198600     0.5328547
H           6.0074470    -1.5396592     1.5835687
C           7.2678310    -1.9366093    -0.1135402
H           8.1856980    -1.7501436     0.4374423
21
220_C8H10O2S_4-5-16-17 (165,) energy =    -859.4457649
C           0.7741005    -1.4807755     0.9872612
H          -0.1732587    -1.3121038     0.4696541
H           0.9896515    -0.6444297     1.6553307
H           0.7398892    -2.4277146     1.5297855
S           2.0307150    -1.5663052    -0.3155924
C           3.5544167    -1.8792454     0.6468050
H           3.6239873    -1.0570404     1.3668706
H           3.3493526    -2.8029167     1.2024394
O           1.7333659    -2.7556897    -1.1319825
O           2.1209714    -0.2376841    -0.9395311
C           7.3068428    -2.3228026    -1.4591509
H           8.2595493    -2.4413130    -1.9679817
C           6.1125024    -2.4188024    -2.1718940
H           6.1298112    -2.6157560    -3.2402794
C           4.8834517    -2.2714528    -1.5252168
H           3.9662898    -2.3761846    -2.0932159
C           4.8397059    -2.0036529    -0.1520755
C           6.0446840    -1.9188684     0.5603385
H           6.0232927    -1.7193722     1.6297649
C           7.2695228    -2.0765429    -0.0854990
H           8.1921716    -2.0032867     0.4839520
21
220_C8H10O2S_4-5-16-17 (180,) energy =    -859.4448516
C           0.7988893    -1.3686157     0.9135966
H          -0.1568537    -1.3039720     0.3880220
H           1.0026981    -0.4315263     1.4356523
H           0.7902280    -2.2161740     1.6019967
S           2.0441979    -1.6363324    -0.3750504
C           3.5852396    -1.7372205     0.6024690
H           3.6269264    -0.8018700     1.1728471
H           3.4259526    -2.5595318     1.3096728
O           1.7803070    -2.9494914    -0.9840848
O           2.0887072    -0.4248254    -1.2089887
C           7.3439753    -2.3234969    -1.4616647
H           8.2991776    -2.4703369    -1.9582734
C           6.1680081    -2.2454749    -2.2055902
H           6.2023233    -2.3311757    -3.2881177
C           4.9359258    -2.0566726    -1.5745221
H           4.0373678    -1.9974674    -2.1771055
C           4.8701843    -1.9443698    -0.1817660
C           6.0577373    -2.0229474     0.5607183
H           6.0196311    -1.9364496     1.6448052
C           7.2851281    -2.2110044    -0.0711526
H           8.1933454    -2.2693547     0.5226842
