20
419_C6H8N4O2_1-0-2-3 (-165,) energy =    -602.9568062
C           3.3767544     1.6628963     1.2217113
C           3.2091599     0.4439624     0.5595050
C           2.4647131     2.6822145     1.8299023
O           2.8871352     3.8065922     2.1119249
N           1.1928236     2.2836093     2.0441479
H           0.5496346     2.9955010     2.3615882
H           0.8474759     1.4002352     1.6525656
C           1.9902634    -0.3651464     0.2896610
O           0.8546343    -0.0833292     0.6946168
N           2.2333119    -1.4682346    -0.4569037
H           1.4707197    -2.0988198    -0.6525656
H           3.1807930    -1.6868599    -0.7327231
N           4.4209145    -0.0334834     0.1179687
C           5.3037005     0.8617242     0.4981711
H           6.3707095     0.8069770     0.3263004
N           4.7394583     1.9069251     1.1614962
C           5.4947692     3.0453139     1.6879162
H           5.2067654     3.9629482     1.1763437
H           6.5552441     2.8348887     1.5281252
H           5.2963111     3.1732411     2.7518419
20
419_C6H8N4O2_1-0-2-3 (-150,) energy =    -602.9556372
C           3.3992672     1.6631899     1.2301241
C           3.2333298     0.4528570     0.5551141
C           2.4725241     2.7172082     1.7520541
O           2.8395407     3.8921513     1.8117727
N           1.2472750     2.2865857     2.1323951
H           0.5726352     3.0132228     2.3327849
H           0.9175166     1.3695493     1.8116950
C           2.0107027    -0.3537486     0.3027513
O           0.8964437    -0.1002916     0.7785863
N           2.2248008    -1.4166645    -0.5097258
H           1.4689797    -2.0675580    -0.6614586
H           3.1671925    -1.6355916    -0.8030133
N           4.4458253    -0.0227125     0.1131074
C           5.3280307     0.8692728     0.5034516
H           6.3964498     0.8128807     0.3409079
N           4.7601071     1.9110999     1.1700760
C           5.5004499     3.0543366     1.7044744
H           5.2357085     3.9630208     1.1652536
H           6.5659088     2.8376914     1.5961140
H           5.2611495     3.2001287     2.7585964
20
419_C6H8N4O2_1-0-2-3 (-135,) energy =    -602.9532595
C           3.4653423     1.6709965     1.2309806
C           3.3007901     0.4715676     0.5399615
C           2.5245802     2.7560791     1.6619333
O           2.8246899     3.9382477     1.4990360
N           1.3508071     2.3318820     2.1945354
H           0.6435328     3.0501052     2.2921585
H           1.0383953     1.3847548     1.9566591
C           2.0715516    -0.3299235     0.3130899
O           0.9807393    -0.0873339     0.8445371
N           2.2526252    -1.3715901    -0.5351189
H           1.4950352    -2.0253583    -0.6647692
H           3.1843588    -1.5879285    -0.8624720
N           4.5126652    -0.0016703     0.0938761
C           5.3946640     0.8873863     0.4925192
H           6.4637946     0.8310370     0.3344259
N           4.8243196     1.9233066     1.1677168
C           5.5467567     3.0749996     1.7047765
H           5.2458239     3.9820448     1.1818084
H           6.6157176     2.8900007     1.5776377
H           5.3253294     3.1967245     2.7672528
20
419_C6H8N4O2_1-0-2-3 (-120,) energy =    -602.9494781
C           3.4493985     1.6309791     1.2480219
C           3.2956784     0.4457996     0.5344475
C           2.4905561     2.7386972     1.5824967
O           2.7134916     3.8867044     1.2064683
N           1.3703388     2.3497797     2.2487375
H           0.6295108     3.0416063     2.2612450
H           1.0806321     1.3780192     2.1079666
C           2.0592081    -0.3438906     0.3151177
O           0.9904926    -0.1106668     0.8920509
N           2.2083668    -1.3569904    -0.5748219
H           1.4528728    -2.0176326    -0.6818299
H           3.1338163    -1.5799213    -0.9158181
N           4.5120282    -0.0245089     0.0985163
C           5.3889049     0.8602222     0.5189907
H           6.4604326     0.8051913     0.3772368
N           4.8076381     1.8885448     1.1981990
C           5.5054325     3.0426481     1.7583467
H           5.0936847     3.9571849     1.3315000
H           6.5667646     2.9501105     1.5191793
H           5.3842479     3.0681653     2.8450623
20
419_C6H8N4O2_1-0-2-3 (-105,) energy =    -602.9441328
C           3.4579279     1.6050606     1.2567966
C           3.3205095     0.4372084     0.5160111
C           2.4889305     2.7283852     1.5161227
O           2.6224187     3.8040261     0.9432641
N           1.4439362     2.4091431     2.3319381
H           0.6734897     3.0680192     2.2930067
H           1.1724557     1.4254470     2.3102117
C           2.0745745    -0.3349197     0.2967041
O           1.0227133    -0.0877826     0.8956748
N           2.1972446    -1.3367090    -0.6115531
H           1.4313076    -1.9848963    -0.7205999
H           3.1139563    -1.5687636    -0.9692966
N           4.5429696    -0.0272754     0.0934831
C           5.4112566     0.8540592     0.5390350
H           6.4851635     0.8029216     0.4145937
N           4.8154488     1.8699965     1.2266532
C           5.4838008     3.0407089     1.7839801
H           5.0540570     3.9436330     1.3468532
H           6.5478199     2.9775619     1.5477671
H           5.3598778     3.0693454     2.8705551
20
419_C6H8N4O2_1-0-2-3 (-90,) energy =    -602.9379762
C           3.4499054     1.5891652     1.2042932
C           3.3418408     0.4191098     0.4699373
C           2.4600783     2.7052016     1.4251143
O           2.4278401     3.6618429     0.6649679
N           1.6027904     2.5254411     2.4752870
H           0.7932920     3.1371986     2.4589064
H           1.3921702     1.5576148     2.6966529
C           2.0843691    -0.3157445     0.2012060
O           1.0183607     0.0024723     0.7315354
N           2.2196890    -1.3529471    -0.6675602
H           1.4338579    -1.9696330    -0.8110184
H           3.1434021    -1.6294911    -0.9708916
N           4.5811583    -0.0563692     0.1119081
C           5.4314106     0.8275987     0.5846934
H           6.5096944     0.7750642     0.5071405
N           4.8061673     1.8529037     1.2367785
C           5.4373433     3.0418274     1.7949768
H           5.0280069     3.9329383     1.3128339
H           6.5120402     2.9864335     1.6114252
H           5.2608172     3.0997518     2.8731650
20
419_C6H8N4O2_1-0-2-3 (-75,) energy =    -602.9341757
C           3.2664607     1.5638848     1.0609534
C           3.1873884     0.3733099     0.3659945
C           2.2324642     2.6220000     1.3464459
O           1.8650774     3.4039692     0.4882532
N           1.7987466     2.6598685     2.6499115
H           0.9784951     3.2348038     2.8091895
H           1.8270242     1.7935888     3.1731418
C           1.9361181    -0.3351727     0.0080759
O           0.8366110     0.0616492     0.3882949
N           2.1267411    -1.4436971    -0.7580495
H           1.3297718    -2.0111116    -1.0035206
H           3.0632207    -1.7475214    -0.9840298
N           4.4451442    -0.1314106     0.1204270
C           5.2730089     0.7495631     0.6335209
H           6.3535553     0.6860658     0.6299677
N           4.6168876     1.8015698     1.2160636
C           5.2226351     2.9918010     1.7984923
H           5.0332991     3.8640662     1.1654938
H           6.2995765     2.8327870     1.8815903
H           4.8081044     3.1768166     2.7927028
20
419_C6H8N4O2_1-0-2-3 (-60,) energy =    -602.9324161
C           3.0770101     1.4424620     0.9158232
C           3.0599025     0.2406542     0.2336737
C           1.9816595     2.4301450     1.2018248
O           1.3594795     2.9876789     0.3180663
N           1.7913966     2.6944527     2.5441574
H           0.9564695     3.2326306     2.7493106
H           1.9938513     1.9504315     3.2006965
C           1.8561542    -0.5386829    -0.1544465
O           0.7290771    -0.2309009     0.2198648
N           2.1322521    -1.6097420    -0.9519400
H           1.3853763    -2.2538308    -1.1652469
H           3.0932220    -1.8774614    -1.1129699
N           4.3404493    -0.2308728     0.0508144
C           5.1216655     0.6758415     0.5918138
H           6.2031188     0.6447677     0.6273134
N           4.4154973     1.7119919     1.1407025
C           4.9872862     2.9299243     1.7035323
H           4.9262438     3.7533201     0.9846004
H           6.0353606     2.7430509     1.9467677
H           4.4487989     3.2121043     2.6099288
20
419_C6H8N4O2_1-0-2-3 (-45,) energy =    -602.9307991
C           3.1052129     1.4233654     0.9645686
C           3.1073754     0.2332128     0.2570853
C           2.0008316     2.3977353     1.2331803
O           1.2298118     2.7679795     0.3685392
N           1.9603748     2.8799790     2.5308583
H           1.1263669     3.4179453     2.7398887
H           2.2588969     2.2572328     3.2717563
C           1.9265240    -0.5679515    -0.1717928
O           0.7909148    -0.3352945     0.2234239
N           2.2450167    -1.5764987    -1.0353943
H           1.5265734    -2.2483940    -1.2615219
H           3.2164129    -1.8105647    -1.1869953
N           4.3920787    -0.2291874     0.0905122
C           5.1596694     0.6693118     0.6646465
H           6.2406239     0.6412971     0.7151496
N           4.4428094     1.6921978     1.2192969
C           5.0192577     2.8864397     1.8273939
H           4.6882965     3.7828944     1.2967852
H           6.1065077     2.8120857     1.7594367
H           4.7300347     2.9754527     2.8768461
20
419_C6H8N4O2_1-0-2-3 (-30,) energy =    -602.9289270
C           3.0717739     1.4242080     0.9947163
C           3.0769395     0.2409066     0.2695001
C           1.9633104     2.3944939     1.2359479
O           1.0664302     2.5727790     0.4340181
N           2.0434400     3.1030279     2.4280670
H           1.2015229     3.6311803     2.6306657
H           2.4398524     2.6289933     3.2307483
C           1.9116691    -0.5821044    -0.1752903
O           0.7804291    -0.4325804     0.2641315
N           2.2502089    -1.5199980    -1.1120686
H           1.5608057    -2.2255576    -1.3281442
H           3.2283548    -1.7236677    -1.2668567
N           4.3609091    -0.2176345     0.0997301
C           5.1283749     0.6731017     0.6871323
H           6.2092676     0.6417316     0.7388222
N           4.4150238     1.6905051     1.2498359
C           5.0135514     2.8542077     1.8957550
H           4.5539165     3.7723867     1.5276280
H           6.0798453     2.8630435     1.6600501
H           4.8943964     2.8136287     2.9828390
20
419_C6H8N4O2_1-0-2-3 (-15,) energy =    -602.9264249
C           3.0563559     1.3946589     1.0539834
C           3.0678581     0.2262824     0.2985080
C           1.9366440     2.3504112     1.2839453
O           0.9307252     2.3479460     0.5997445
N           2.1092800     3.2614333     2.3239564
H           1.2540721     3.7678165     2.5279871
H           2.5981365     2.9418263     3.1517730
C           1.9211469    -0.6263239    -0.1525530
O           0.8110658    -0.5879075     0.3550025
N           2.2618383    -1.4648521    -1.1806936
H           1.6033825    -2.1976376    -1.4040234
H           3.2417557    -1.6120867    -1.3818620
N           4.3538020    -0.2085759     0.0965728
C           5.1192774     0.6785885     0.6928291
H           6.2010887     0.6566545     0.7296898
N           4.4058297     1.6745648     1.2867523
C           5.0192564     2.8172326     1.9555496
H           4.5565374     3.7470543     1.6232188
H           6.0817431     2.8277619     1.7036979
H           4.9226763     2.7410195     3.0440495
20
419_C6H8N4O2_1-0-2-3 (0,) energy =    -602.9231612
C           3.0217145     1.3364491     1.0756578
C           3.0716443     0.0639139     0.5080918
C           1.9902273     1.8922138     1.9942317
O           1.0307419     1.2367142     2.3563086
N           2.1673292     3.2068525     2.4298944
H           1.3430283     3.5393934     2.9197668
H           2.5325736     3.8798197     1.7673774
C           1.9724744    -0.9281516     0.2580334
O           0.7958888    -0.6259792     0.1475413
N           2.4443178    -2.2113326     0.1425110
H           1.7995684    -2.8905559    -0.2376977
H           3.4321595    -2.3422209    -0.0312536
N           4.3198509    -0.1973571     0.0038076
C           5.0334767     0.8749260     0.2677247
H           6.0739034     1.0199929     0.0054211
N           4.3230465     1.8332529     0.9202412
C           4.9137236     3.0871569     1.3739514
H           4.5314469     3.9378464     0.7982245
H           5.9926461     3.0288164     1.2174914
H           4.7096980     3.2459032     2.4338861
20
419_C6H8N4O2_1-0-2-3 (15,) energy =    -602.9264265
C           3.0563524     1.2833733     1.1311489
C           3.0953194     0.0276852     0.5330333
C           2.0392008     1.8462597     2.0629107
O           1.2210642     1.1459121     2.6290554
N           2.0813808     3.2244257     2.2611872
H           1.2708391     3.5580461     2.7720863
H           2.3313399     3.8066065     1.4707754
C           1.9836629    -0.9504373     0.3027829
O           0.8009941    -0.6476324     0.3316084
N           2.4417383    -2.2140881     0.0381214
H           1.7667296    -2.8764221    -0.3171051
H           3.4155442    -2.3337657    -0.2065801
N           4.3299558    -0.2107500    -0.0168414
C           5.0437044     0.8597468     0.2532693
H           6.0780391     1.0154109    -0.0261376
N           4.3422165     1.7989172     0.9458675
C           4.9243720     3.0472785     1.4275172
H           4.5809303     3.9021321     0.8346752
H           6.0097145     2.9751522     1.3315942
H           4.6609461     3.2122386     2.4727263
20
419_C6H8N4O2_1-0-2-3 (30,) energy =    -602.9289263
C           3.1072760     1.3201537     1.1869939
C           3.1195265     0.0795785     0.5652264
C           2.1057207     1.9118026     2.1220872
O           1.4360553     1.2309510     2.8756233
N           2.0123926     3.2972802     2.0939593
H           1.2211098     3.6501590     2.6213752
H           2.1593153     3.7605034     1.2051570
C           1.9833111    -0.8698559     0.3631344
O           0.8120193    -0.5545636     0.5172050
N           2.3951661    -2.1172574    -0.0195025
H           1.6855594    -2.7566424    -0.3474538
H           3.3491374    -2.2403077    -0.3311799
N           4.3401350    -0.1574460    -0.0192623
C           5.0684234     0.9015405     0.2561025
H           6.0987977     1.0546285    -0.0385891
N           4.3852818     1.8339553     0.9804918
C           4.9724685     3.0674688     1.4934101
H           4.6059389     3.9422694     0.9477655
H           6.0556371     3.0054114     1.3690116
H           4.7360715     3.1910868     2.5511868
20
419_C6H8N4O2_1-0-2-3 (45,) energy =    -602.9307991
C           3.1295097     1.2755210     1.1940571
C           3.1373301     0.0475708     0.5544803
C           2.1248818     1.8881404     2.1196081
O           1.6159623     1.2701201     3.0351399
N           1.8609637     3.2264434     1.8798562
H           1.0759843     3.5884535     2.4103563
H           1.9082436     3.5489297     0.9208858
C           1.9884808    -0.8819587     0.3639067
O           0.8323402    -0.5639211     0.6131493
N           2.3595030    -2.1052087    -0.1161048
H           1.6296227    -2.7403113    -0.4036053
H           3.3030159    -2.2400939    -0.4522127
N           4.3584579    -0.1841739    -0.0347332
C           5.0878275     0.8690858     0.2564446
H           6.1188089     1.0266673    -0.0334542
N           4.4012117     1.7936300     0.9923902
C           4.9755414     3.0103429     1.5563467
H           4.4763278     3.9008257     1.1680769
H           6.0329184     3.0446468     1.2860922
H           4.8848239     3.0061926     2.6455933
20
419_C6H8N4O2_1-0-2-3 (60,) energy =    -602.9324162
C           3.1150418     1.2413160     1.2407983
C           3.0972914     0.0259703     0.5830816
C           2.1169379     1.8766787     2.1666503
O           1.7797860     1.3607812     3.2150616
N           1.6707802     3.1176590     1.7557806
H           0.8857916     3.4764080     2.2886194
H           1.6284770     3.2932112     0.7592934
C           1.9201038    -0.8605759     0.3952720
O           0.7862570    -0.5189128     0.7159033
N           2.2277708    -2.0670197    -0.1607935
H           1.4710783    -2.6799454    -0.4251957
H           3.1590565    -2.2290035    -0.5179169
N           4.3168587    -0.2247545    -0.0045893
C           5.0676052     0.8069345     0.3070065
H           6.1019822     0.9503450     0.0219425
N           4.3942292     1.7350234     1.0545296
C           4.9768744     2.9260636     1.6620124
H           4.2921158     3.7700896     1.5626292
H           5.9137032     3.1559017     1.1500815
H           5.1796215     2.7578400     2.7246328
20
419_C6H8N4O2_1-0-2-3 (75,) energy =    -602.9341753
C           3.2821278     1.4521022     1.2262589
C           3.2083533     0.2245022     0.5983696
C           2.3524367     2.1323146     2.1974275
O           2.2842893     1.7887148     3.3637023
N           1.6508993     3.1903645     1.6709572
H           0.8946807     3.5319313     2.2542565
H           1.4534013     3.1671216     0.6782333
C           1.9874007    -0.6045810     0.4657352
O           0.8901665    -0.2064909     0.8511951
N           2.2005297    -1.8156371    -0.1173719
H           1.4122383    -2.4207750    -0.2899645
H           3.1178895    -2.0545633    -0.4662629
N           4.4152349    -0.0991704     0.0190266
C           5.2142278     0.9009700     0.3123950
H           6.2521918     0.9942149     0.0198830
N           4.5842142     1.8716613     1.0454994
C           5.1918945     3.0692399     1.6105707
H           4.5932437     3.9486899     1.3601810
H           6.1938526     3.1851115     1.1926740
H           5.2614664     2.9837593     2.6992732
20
419_C6H8N4O2_1-0-2-3 (90,) energy =    -602.9379764
C           3.4401780     1.6144965     1.1257432
C           3.3517318     0.3609151     0.5420483
C           2.5730696     2.2767395     2.1667064
O           2.8287929     2.1500924     3.3552275
N           1.4897507     2.9538705     1.6788155
H           0.7865443     3.1696330     2.3779227
H           1.1165253     2.5947654     0.8060024
C           2.1028767    -0.4098614     0.3427649
O           0.9943479     0.0744133     0.5784140
N           2.2960339    -1.6750578    -0.1163933
H           1.4905523    -2.2205436    -0.3848284
H           3.2220441    -1.9645728    -0.3999818
N           4.5703690    -0.0425796     0.0498221
C           5.3988454     0.9292350     0.3613730
H           6.4525511     0.9671719     0.1169618
N           4.7779413     1.9475743     1.0283518
C           5.4137221     3.1271503     1.6009593
H           5.0092339     4.0380822     1.1497801
H           6.4863212     3.0769512     1.4041236
H           5.2388402     3.1491058     2.6794113
20
419_C6H8N4O2_1-0-2-3 (105,) energy =    -602.9441325
C           3.4382455     1.6678140     1.1108176
C           3.3231125     0.4063779     0.5389334
C           2.5836453     2.3691175     2.1334734
O           2.9729501     2.4831110     3.2903678
N           1.3530365     2.7526339     1.6884415
H           0.6983007     2.9796125     2.4294095
H           0.9727612     2.1742147     0.9383293
C           2.0698939    -0.3416376     0.2810743
O           0.9511856     0.1639562     0.4192816
N           2.2637626    -1.6227049    -0.1251358
H           1.4663142    -2.1535909    -0.4428926
H           3.2005409    -1.9341617    -0.3434627
N           4.5410547    -0.0473224     0.0922981
C           5.3925623     0.9026485     0.4111270
H           6.4525262     0.9015035     0.1923852
N           4.7911196     1.9494237     1.0455881
C           5.4608331     3.1228357     1.5955353
H           5.0988249     4.0321791     1.1068791
H           6.5334894     3.0249531     1.4173459
H           5.2608569     3.1839312     2.6666762
20
419_C6H8N4O2_1-0-2-3 (120,) energy =    -602.9494772
C           3.4343516     1.6739017     1.1375480
C           3.2953382     0.4238536     0.5410238
C           2.5715093     2.4299917     2.1080581
O           3.0135359     2.7583031     3.2063790
N           1.2922224     2.6408911     1.6985063
H           0.6591810     2.9334031     2.4340645
H           0.9220677     1.9706356     1.0191736
C           2.0496084    -0.3330644     0.2657271
O           0.9181137     0.1467752     0.4020289
N           2.2637772    -1.6040672    -0.1587639
H           1.4752221    -2.1380314    -0.4932347
H           3.2065753    -1.8955396    -0.3794941
N           4.5096280    -0.0446701     0.0977883
C           5.3752882     0.8873153     0.4302888
H           6.4361880     0.8693788     0.2170987
N           4.7912930     1.9356983     1.0756302
C           5.4875636     3.1047013     1.6060654
H           5.1265276     4.0144855     1.1181241
H           6.5540616     2.9891647     1.4025377
H           5.3064415     3.1792930     2.6783327
20
419_C6H8N4O2_1-0-2-3 (135,) energy =    -602.9532591
C           3.3967925     1.6730694     1.1521968
C           3.2457332     0.4274618     0.5451224
C           2.5249825     2.5026591     2.0465556
O           2.9993025     3.0465995     3.0432207
N           1.2179618     2.5678594     1.6885827
H           0.6012533     2.9518514     2.3940456
H           0.8525121     1.8194120     1.0907370
C           2.0099595    -0.3478864     0.2686681
O           0.8659760     0.0909449     0.4416845
N           2.2473820    -1.5957235    -0.2044614
H           1.4639507    -2.1517145    -0.5131422
H           3.1951074    -1.8699064    -0.4252157
N           4.4596822    -0.0498005     0.1089041
C           5.3317916     0.8733053     0.4475620
H           6.3939715     0.8438584     0.2423242
N           4.7557058     1.9259952     1.0913323
C           5.4752454     3.0848282     1.6167088
H           5.0227499     4.0076594     1.2482110
H           6.5086857     3.0247174     1.2680638
H           5.4338814     3.0898701     2.7054508
20
419_C6H8N4O2_1-0-2-3 (150,) energy =    -602.9556373
C           3.3883245     1.6638210     1.1800970
C           3.2253850     0.4312533     0.5460546
C           2.5078520     2.5526887     2.0027771
O           2.9959641     3.2764379     2.8726141
N           1.1852124     2.4923574     1.7223148
H           0.5788335     2.9673526     2.3780805
H           0.8226934     1.6920430     1.1925585
C           1.9977897    -0.3608684     0.2730882
O           0.8465221     0.0367521     0.4937453
N           2.2517855    -1.5834496    -0.2526777
H           1.4724773    -2.1515581    -0.5490489
H           3.2007484    -1.8322296    -0.4968467
N           4.4366104    -0.0459191     0.1021379
C           5.3151425     0.8653919     0.4541695
H           6.3774821     0.8287225     0.2511675
N           4.7487352     1.9122631     1.1143642
C           5.4900485     3.0601212     1.6373178
H           5.0405344     3.9907678     1.2890019
H           6.5158836     2.9866747     1.2682902
H           5.4721402     3.0589918     2.7265359
20
419_C6H8N4O2_1-0-2-3 (165,) energy =    -602.9568063
C           3.3741435     1.6736878     1.2019462
C           3.2085260     0.4471541     0.5534319
C           2.4823898     2.6160721     1.9485432
O           2.9667171     3.5054696     2.6532400
N           1.1555516     2.4259968     1.7876802
H           0.5503511     2.9937586     2.3644209
H           0.7994133     1.5835123     1.3225643
C           1.9892436    -0.3606236     0.2813377
O           0.8355533    -0.0101769     0.5628339
N           2.2537872    -1.5454903    -0.3181290
H           1.4815801    -2.1395666    -0.5793571
H           3.2046352    -1.7769696    -0.5709236
N           4.4199634    -0.0291500     0.1097896
C           5.3002184     0.8758158     0.4723639
H           6.3639865     0.8334534     0.2783294
N           4.7360595     1.9207008     1.1362515
C           5.4904560     3.0626267     1.6562761
H           5.0806023     3.9958397     1.2704519
H           6.5264109     2.9455504     1.3283942
H           5.4356409     3.0919892     2.7438444
20
419_C6H8N4O2_1-0-2-3 (180,) energy =    -602.9571124
C           3.3729178     1.6794325     1.2155712
C           3.2061073     0.4552886     0.5613772
C           2.4715258     2.6635646     1.8936263
O           2.9361799     3.6913050     2.3951721
N           1.1606022     2.3502258     1.9115325
H           0.5433315     3.0054735     2.3694065
H           0.8095372     1.4837028     1.4889040
C           1.9898671    -0.3582394     0.2899136
O           0.8416457    -0.0497403     0.6361364
N           2.2504071    -1.4999656    -0.3890780
H           1.4849618    -2.1182428    -0.6107499
H           3.2013202    -1.7228560    -0.6489716
N           4.4176131    -0.0214841     0.1187511
C           5.2990682     0.8792583     0.4882583
H           6.3643806     0.8303000     0.3046158
N           4.7357846     1.9247774     1.1513778
C           5.4956509     3.0646753     1.6690612
H           5.1511328     3.9915534     1.2115194
H           6.5470384     2.8907730     1.4263082
H           5.3659339     3.1506632     2.7472097
