16
294_C7H5F3O_1-0-4-11 (-165,) energy =    -644.5042494
C           1.3030724    -0.8704798    -0.5052295
F           0.2225859    -1.5376486    -0.0977122
F           1.6784451    -1.3718366    -1.7031515
F           0.9664970     0.4167138    -0.7045026
O           2.2618651    -1.0175954     0.4407124
C           5.6158386     1.4703614     0.4885231
H           6.4943599     2.1082589     0.5203220
C           4.6935461     1.4971397     1.5367109
H           4.8502960     2.1555084     2.3864077
C           3.5621328     0.6815214     1.4980776
H           2.8296274     0.6851019     2.2985168
C           3.3735947    -0.1580350     0.4047502
C           4.2869293    -0.2100899    -0.6458168
H           4.1214639    -0.8856947    -1.4770378
C           5.4092139     0.6186500    -0.5983771
H           6.1270532     0.5899793    -1.4132100
16
294_C7H5F3O_1-0-4-11 (-150,) energy =    -644.5031452
C           1.3303933    -0.9305508    -0.5368721
F           0.1284894    -1.2350010    -0.0415488
F           1.6344116    -1.8357656    -1.4912910
F           1.2479176     0.2696760    -1.1374264
O           2.2271932    -0.9521716     0.4809931
C           5.6174650     1.4814329     0.5070737
H           6.5049673     2.1068844     0.5346866
C           4.7429781     1.4583977     1.5952960
H           4.9463300     2.0655238     2.4728351
C           3.5984511     0.6605638     1.5623484
H           2.9012717     0.6282644     2.3931326
C           3.3502831    -0.1131121     0.4333666
C           4.2170600    -0.1175977    -0.6575819
H           4.0079342    -0.7458071    -1.5166663
C           5.3503493     0.6952005    -0.6157390
H           6.0301774     0.7045421    -1.4629694
16
294_C7H5F3O_1-0-4-11 (-135,) energy =    -644.5015117
C           1.3406893    -0.9095080    -0.5627014
F           0.1378814    -0.9876230     0.0192659
F           1.4408139    -1.9219447    -1.4446675
F           1.3943540     0.2408017    -1.2550930
O           2.3015874    -1.0031928     0.3929830
C           5.6275189     1.5121308     0.5220226
H           6.5003210     2.1564220     0.5743474
C           4.7316084     1.4601880     1.5914521
H           4.9039043     2.0629244     2.4785955
C           3.6055129     0.6376843     1.5276101
H           2.8933549     0.5805721     2.3442346
C           3.3985301    -0.1299165     0.3865758
C           4.2876266    -0.1048301    -0.6856206
H           4.1069115    -0.7303679    -1.5537661
C           5.4023061     0.7307605    -0.6137818
H           6.0996243     0.7633433    -1.4460797
16
294_C7H5F3O_1-0-4-11 (-120,) energy =    -644.5007613
C           1.2885763    -0.7362089    -0.3360462
F           0.3981596    -1.0733523     0.6122604
F           0.9306928    -1.3673583    -1.4654115
F           1.1908455     0.5857614    -0.5480179
O           2.5353822    -1.1294113     0.0348690
C           5.7114004     1.5327066     0.5234566
H           6.5516359     2.2081653     0.6558071
C           4.6501174     1.5510643     1.4316659
H           4.6629495     2.2387857     2.2724385
C           3.5704053     0.6821075     1.2717577
H           2.7440738     0.6729997     1.9751875
C           3.5666081    -0.1902357     0.1862439
C           4.6145965    -0.2266388    -0.7275597
H           4.5776248    -0.9291848    -1.5537080
C           5.6931643     0.6420682    -0.5514560
H           6.5179394     0.6215348    -1.2580709
16
294_C7H5F3O_1-0-4-11 (-105,) energy =    -644.5016836
C           1.2719070    -0.7254306    -0.3052521
F           0.5258253    -0.9546044     0.7937332
F           0.7353483    -1.4369539    -1.3047338
F           1.1707981     0.5775127    -0.6097708
O           2.5521664    -1.1377137    -0.1153595
C           5.7026566     1.5157129     0.5484364
H           6.5364071     2.1897617     0.7220625
C           4.6043065     1.5261201     1.4114113
H           4.5817978     2.2054545     2.2587694
C           3.5324747     0.6587492     1.1997835
H           2.6793663     0.6426940     1.8703125
C           3.5721510    -0.2009659     0.1042503
C           4.6572365    -0.2295396    -0.7651096
H           4.6519780    -0.9219265    -1.6005144
C           5.7287686     0.6348233    -0.5343879
H           6.5820757     0.6200282    -1.2064334
16
294_C7H5F3O_1-0-4-11 (-90,) energy =    -644.5033148
C           1.2793761    -0.7380959    -0.2915134
F           0.6723115    -0.8093842     0.9141964
F           0.6271374    -1.5635438    -1.1152210
F           1.1419809     0.5189036    -0.7413005
O           2.5716126    -1.1457625    -0.2264543
C           5.6948862     1.5047956     0.5738432
H           6.5220798     2.1779902     0.7790838
C           4.5770852     1.4955111     1.4107381
H           4.5327967     2.1584089     2.2702062
C           3.5122193     0.6292270     1.1605367
H           2.6467825     0.6006185     1.8135075
C           3.5794342    -0.2095927     0.0499395
C           4.6845491    -0.2181934    -0.7947375
H           4.6986157    -0.8935922    -1.6437955
C           5.7479142     0.6440950    -0.5243479
H           6.6156643     0.6442696    -1.1778358
16
294_C7H5F3O_1-0-4-11 (-75,) energy =    -644.5043049
C           1.3672177    -0.7006567    -0.4058497
F           0.7091516    -0.2048971     0.6660624
F           0.6687728    -1.7385483    -0.8686083
F           1.3858845     0.2634285    -1.3424734
O           2.6072567    -1.1468304    -0.0884113
C           5.7037881     1.5645856     0.6191335
H           6.5236449     2.2524001     0.8050216
C           4.6499473     1.4692489     1.5304620
H           4.6489616     2.0812298     2.4279582
C           3.5957302     0.5833067     1.3026464
H           2.7758410     0.4872089     2.0052580
C           3.6126893    -0.1916693     0.1453778
C           4.6537318    -0.1140052    -0.7739481
H           4.6307398    -0.7417028    -1.6586674
C           5.7051469     0.7705907    -0.5295206
H           6.5239309     0.8388443    -1.2400931
16
294_C7H5F3O_1-0-4-11 (-60,) energy =    -644.5046501
C           1.3640161    -0.7681631    -0.4725006
F           0.7824184     0.2331642     0.2176317
F           0.5244226    -1.8030445    -0.5067025
F           1.5479737    -0.3238388    -1.7319874
O           2.5168647    -1.1916598     0.1011059
C           5.6645357     1.5054500     0.5998156
H           6.4961498     2.1901631     0.7395145
C           4.7038562     1.3605521     1.6031571
H           4.7850221     1.9316532     2.5236017
C           3.6350302     0.4797049     1.4313537
H           2.8788010     0.3465598     2.1974602
C           3.5486921    -0.2454616     0.2467872
C           4.4949362    -0.1168536    -0.7654781
H           4.3935781    -0.7040323    -1.6718005
C           5.5588258     0.7675553    -0.5812356
H           6.3060296     0.8769266    -1.3620557
16
294_C7H5F3O_1-0-4-11 (-45,) energy =    -644.5042571
C           1.3867623    -0.8338407    -0.5504543
F           0.9685086     0.4332546    -0.3820905
F           0.3896442    -1.6659435    -0.2502383
F           1.6719267    -0.9806509    -1.8647087
O           2.4419188    -1.1450929     0.2409167
C           5.6440770     1.5075660     0.6226078
H           6.4860182     2.1841898     0.7370022
C           4.7733602     1.2885513     1.6922269
H           4.9340950     1.7938575     2.6402854
C           3.6892603     0.4214873     1.5497972
H           2.9980249     0.2344228     2.3649474
C           3.4969127    -0.2193650     0.3301988
C           4.3585864    -0.0238345    -0.7463986
H           4.1878788    -0.5498425    -1.6787545
C           5.4343200     0.8521655    -0.5924373
H           6.1127822     1.0154796    -1.4249453
16
294_C7H5F3O_1-0-4-11 (-30,) energy =    -644.5032097
C           1.3384325    -0.9056389    -0.1667461
F           1.8399927    -1.5101421     0.9229867
F           0.7211352    -1.8121126    -0.9261771
F           0.4054727    -0.0272582     0.2672380
O           2.2860890    -0.2915005    -0.9185167
C           5.7689674     1.2861777     0.7546801
H           6.6825522     1.7022033     1.1692712
C           4.5308855     1.6415206     1.2942842
H           4.4774482     2.3364071     2.1275658
C           3.3512355     1.1186379     0.7636038
H           2.3827845     1.3997010     1.1627983
C           3.4356462     0.2223449    -0.3000020
C           4.6581307    -0.1430770    -0.8537462
H           4.6784230    -0.8380188    -1.6867889
C           5.8290136     0.3982651    -0.3211336
H           6.7886963     0.1198360    -0.7471868
16
294_C7H5F3O_1-0-4-11 (-15,) energy =    -644.5015873
C           1.3493933    -0.9213895    -0.1722655
F           1.8371623    -1.3807495     0.9914066
F           0.9388567    -1.9600874    -0.9076063
F           0.2651974    -0.1725241     0.1166050
O           2.2523946    -0.2003995    -0.8860210
C           5.7888910     1.2717700     0.7664941
H           6.7148051     1.6636953     1.1772296
C           4.5635135     1.6508131     1.3197245
H           4.5328172     2.3392931     2.1594212
C           3.3692872     1.1578695     0.7936741
H           2.4083678     1.4548433     1.2011259
C           3.4251737     0.2697743    -0.2781957
C           4.6341526    -0.1180433    -0.8456408
H           4.6320417    -0.8040745    -1.6862765
C           5.8211862     0.3924338    -0.3173928
H           6.7712381     0.0973732    -0.7536887
16
294_C7H5F3O_1-0-4-11 (0,) energy =    -644.5007466
C           1.3950988    -1.1130343    -0.3815603
F           2.1378573    -1.8804501     0.4318667
F           1.1633284    -1.8057735    -1.5094824
F           0.2097032    -0.9023077     0.2115365
O           1.9811582     0.0763856    -0.6799305
C           5.7137332     1.2032446     0.8065695
H           6.6833133     1.5160396     1.1831565
C           4.5503846     1.8096749     1.2839369
H           4.6102916     2.5949437     2.0321193
C           3.3016095     1.4097734     0.8047880
H           2.3829319     1.8665472     1.1581217
C           3.2402170     0.4041065    -0.1541312
C           4.3888796    -0.2056591    -0.6518531
H           4.3052741    -0.9760996    -1.4115844
C           5.6304234     0.1973107    -0.1592266
H           6.5339019    -0.2730308    -0.5367693
16
294_C7H5F3O_1-0-4-11 (15,) energy =    -644.5015873
C           1.4011044    -1.1275888    -0.4071535
F           2.0939232    -1.8834434     0.4598646
F           1.4021557    -1.7743321    -1.5907735
F           0.1325886    -1.0475961     0.0085766
O           1.9031310     0.1267533    -0.5467227
C           5.7117002     1.2017616     0.7744267
H           6.6995331     1.5023079     1.1113301
C           4.5770985     1.8456654     1.2715461
H           4.6780009     2.6487071     1.9960778
C           3.3048482     1.4599677     0.8457174
H           2.4075314     1.9431874     1.2180562
C           3.1909373     0.4315974    -0.0835293
C           4.3102809    -0.2140723    -0.6040454
H           4.1873173    -1.0001237    -1.3420059
C           5.5749815     0.1730408    -0.1606302
H           6.4550702    -0.3270933    -0.5547621
16
294_C7H5F3O_1-0-4-11 (30,) energy =    -644.5032091
C           1.4040873    -1.1482575    -0.3944289
F           1.9844976    -1.8721220     0.5770954
F           1.6435140    -1.7939985    -1.5590569
F           0.0844423    -1.1330884    -0.2014666
O           1.8458898     0.1334841    -0.4386394
C           5.7073410     1.1928464     0.7378617
H           6.7070189     1.4906541     1.0404366
C           4.5926123     1.8494659     1.2629460
H           4.7204215     2.6594600     1.9754159
C           3.3058253     1.4670309     0.8815851
H           2.4235498     1.9585669     1.2781605
C           3.1555607     0.4294114    -0.0325253
C           4.2540338    -0.2294381    -0.5809276
H           4.1064680    -1.0223404    -1.3060388
C           5.5340866     0.1548777    -0.1801857
H           6.3978669    -0.3557140    -0.5964233
16
294_C7H5F3O_1-0-4-11 (45,) energy =    -644.5042568
C           1.3794403    -1.1150093    -0.2763470
F           1.6071315    -1.4951250     0.9935077
F           1.9127678    -2.0699744    -1.0723905
F           0.0646922    -1.0853348    -0.4937360
O           1.8752095     0.1161794    -0.5501446
C           5.7095332     1.1729424     0.7216908
H           6.7035714     1.4682646     1.0448738
C           4.5828858     1.7509630     1.3105430
H           4.6962985     2.4957894     2.0930779
C           3.3036536     1.3737352     0.8998863
H           2.4124554     1.8073350     1.3415001
C           3.1740468     0.4196124    -0.1040928
C           4.2836773    -0.1622075    -0.7123339
H           4.1474126    -0.8926621    -1.5016405
C           5.5571387     0.2187405    -0.2863644
H           6.4311892    -0.2288670    -0.7508302
16
294_C7H5F3O_1-0-4-11 (60,) energy =    -644.5046498
C           1.3689422    -1.0758843    -0.1837243
F           1.1875538    -1.0199465     1.1509497
F           2.0941941    -2.1841112    -0.4362470
F           0.1785936    -1.2048779    -0.7696958
O           1.9506348     0.0459545    -0.6740375
C           5.7307511     1.1623410     0.7027951
H           6.7133231     1.4717522     1.0473660
C           4.5856134     1.6259758     1.3541597
H           4.6742514     2.2947256     2.2055573
C           3.3199189     1.2352902     0.9146860
H           2.4156907     1.5851582     1.4009931
C           3.2252521     0.3796638    -0.1786466
C           4.3531781    -0.0929508    -0.8428404
H           4.2351491    -0.7538673    -1.6947133
C           5.6132218     0.3049437    -0.3934242
H           6.5023896    -0.0547594    -0.9033166
16
294_C7H5F3O_1-0-4-11 (75,) energy =    -644.5043044
C           1.2908694    -1.0047650    -0.1586450
F           0.7179996    -0.5526578     0.9793236
F           2.0392558    -2.0724311     0.1689363
F           0.3145602    -1.3975631    -0.9786098
O           2.0014620    -0.0418026    -0.7948212
C           5.7274548     1.1336128     0.6798583
H           6.6990719     1.4527171     1.0458305
C           4.5692192     1.4783555     1.3795309
H           4.6367736     2.0674158     2.2897370
C           3.3161983     1.0776830     0.9128302
H           2.4054935     1.3456710     1.4363280
C           3.2484599     0.3212894    -0.2545644
C           4.3895956    -0.0309474    -0.9679367
H           4.2907802    -0.6150813    -1.8769210
C           5.6353162     0.3823908    -0.4937819
H           6.5334877     0.1143048    -1.0427772
16
294_C7H5F3O_1-0-4-11 (90,) energy =    -644.5033130
C           1.2085531    -0.9067288    -0.0950537
F           0.3470980    -0.1274921     0.5962041
F           1.8243574    -1.7117933     0.7850946
F           0.4840126    -1.6565967    -0.9302296
O           2.0697621    -0.1662759    -0.8369315
C           5.7453364     1.1272979     0.6594512
H           6.7067295     1.4721994     1.0286741
C           4.5900217     1.3366782     1.4153645
H           4.6485339     1.8474091     2.3723567
C           3.3489998     0.9042875     0.9466454
H           2.4431517     1.0776499     1.5171648
C           3.2898543     0.2432069    -0.2787349
C           4.4281113     0.0266029    -1.0484565
H           4.3362650    -0.4857100    -2.0004923
C           5.6604787     0.4769853    -0.5731465
H           6.5548675     0.3130956    -1.1675017
16
294_C7H5F3O_1-0-4-11 (105,) energy =    -644.5016836
C           1.2125486    -0.9236590    -0.0900412
F           0.1892277    -0.2569209     0.4802644
F           1.8468784    -1.6102060     0.8726800
F           0.6834268    -1.7979078    -0.9553793
O           2.0241134    -0.0735218    -0.7710109
C           5.7642119     1.1040126     0.6545182
H           6.7407451     1.4222401     1.0077038
C           4.6281387     1.3436887     1.4311099
H           4.7173309     1.8504231     2.3878160
C           3.3692526     0.9446497     0.9817477
H           2.4749984     1.1381923     1.5652653
C           3.2717530     0.2887555    -0.2434788
C           4.3896079     0.0431352    -1.0334619
H           4.2677207    -0.4619244    -1.9860282
C           5.6417139     0.4590769    -0.5776393
H           6.5214676     0.2735064    -1.1872252
16
294_C7H5F3O_1-0-4-11 (120,) energy =    -644.5007613
C           1.2292485    -0.9390674    -0.1187663
F           0.0731507    -0.4321524     0.3419494
F           1.8512468    -1.5515181     0.9011055
F           0.9223770    -1.8676262    -1.0382745
O           1.9743485     0.0439105    -0.6891077
C           5.7864059     1.0816892     0.6540320
H           6.7799951     1.3673285     0.9871219
C           4.6730023     1.3738457     1.4455373
H           4.7974705     1.8881830     2.3942144
C           3.3930640     1.0156704     1.0213825
H           2.5156863     1.2469035     1.6167487
C           3.2506180     0.3526800    -0.1949618
C           4.3456221     0.0552170    -0.9994015
H           4.1899825    -0.4530927    -1.9453704
C           5.6201892     0.4266716    -0.5675766
H           6.4826053     0.2007870    -1.1882164
16
294_C7H5F3O_1-0-4-11 (135,) energy =    -644.5015117
C           1.1752227    -0.7636945    -0.2306177
F           0.6749666    -1.6355357    -1.1144331
F           1.1595942     0.4559511    -0.7942590
F           0.3503548    -0.7323274     0.8331496
O           2.4199470    -1.1678738     0.1337014
C           5.6684470     1.4379057     0.3883294
H           6.5273353     2.0987962     0.4603782
C           4.5328239     1.6793749     1.1651043
H           4.5064426     2.5266591     1.8443815
C           3.4285310     0.8309355     1.0837287
H           2.5450312     0.9949555     1.6921482
C           3.4749196    -0.2468671     0.2023006
C           4.5964282    -0.5068441    -0.5778199
H           4.5945396    -1.3632750    -1.2440230
C           5.6992714     0.3430969    -0.4773598
H           6.5811632     0.1484782    -1.0810007
16
294_C7H5F3O_1-0-4-11 (150,) energy =    -644.5031451
C           1.1819428    -0.7593796    -0.2251344
F           0.5452711    -1.7023251    -0.9237414
F           1.1516866     0.3833950    -0.9330110
F           0.4929500    -0.5421462     0.9153969
O           2.4428925    -1.1938166     0.0237948
C           5.6599538     1.4351513     0.4184169
H           6.5106668     2.1020131     0.5239269
C           4.5049804     1.6520873     1.1728111
H           4.4549088     2.4850974     1.8683064
C           3.4091344     0.7970785     1.0509923
H           2.5130053     0.9444076     1.6438996
C           3.4845461    -0.2626722     0.1494795
C           4.6260624    -0.4977198    -0.6096948
H           4.6445505    -1.3395010    -1.2940130
C           5.7194938     0.3578189    -0.4677893
H           6.6159974     0.1819984    -1.0555408
16
294_C7H5F3O_1-0-4-11 (165,) energy =    -644.5042485
C           1.2145078    -0.7586069    -0.3219911
F           0.4865625    -1.8291132    -0.6426210
F           1.3165432     0.0336295    -1.4045688
F           0.5420058    -0.0587807     0.6187063
O           2.4193893    -1.1937417     0.1201840
C           5.6434979     1.4428185     0.4331900
H           6.4954123     2.1110567     0.5194885
C           4.5385101     1.6072980     1.2707876
H           4.5287712     2.4018249     2.0115362
C           3.4420177     0.7491685     1.1718240
H           2.5825158     0.8559379     1.8235476
C           3.4686155    -0.2620826     0.2142134
C           4.5607067    -0.4443673    -0.6279942
H           4.5426522    -1.2500175    -1.3545183
C           5.6540104     0.4150511    -0.5121279
H           6.5124298     0.2808681    -1.1641388
16
294_C7H5F3O_1-0-4-11 (180,) energy =    -644.5046504
C           1.2748266    -0.7535374    -0.4278368
F           0.3808019    -1.7373878    -0.3293451
F           1.5505415    -0.5536274    -1.7321818
F           0.7153227     0.3823009     0.0350418
O           2.3698756    -1.1183282     0.2829401
C           5.6458951     1.4638251     0.4640071
H           6.5097143     2.1196687     0.5242349
C           4.6237212     1.5661597     1.4101285
H           4.6889917     2.3014441     2.2070344
C           3.5134491     0.7233135     1.3400773
H           2.7092054     0.7807013     2.0655969
C           3.4480596    -0.2141668     0.3136962
C           4.4551436    -0.3333738    -0.6392921
H           4.3683165    -1.0803943    -1.4209237
C           5.5599528     0.5154811    -0.5576666
H           6.3547387     0.4324849    -1.2934408
