19
259_C7H9NOS_0-1-14-12 (-165,) energy =    -800.3200947
C           0.9399075    -0.6743725    -0.8081592
N           2.1110933    -1.0247558    -0.1534552
C           2.3644125    -2.3729570     0.3507189
H           1.4375017    -2.9392211     0.3964209
H           2.7812806    -2.3096873     1.3604404
H           3.0767939    -2.9101971    -0.2881145
C          -0.1304044    -1.7401041    -0.9887135
H          -0.9332418    -1.2839674    -1.5685865
H          -0.5404323    -2.0739556    -0.0285193
H           0.2410847    -2.6207191    -1.5236466
C           5.3546743     0.6716467     0.3182893
H           6.4061727     0.6030772     0.5760454
C           4.4818648    -0.4565474     0.2912269
H           4.8057608    -1.4608535     0.5333993
C           3.1934226    -0.1271261    -0.0665228
S           3.0483413     1.5891402    -0.4087269
C           4.7273687     1.8341169    -0.0221001
H           5.1526133     2.8258178    -0.1042238
O           0.7609800     0.4670735    -1.2153417
19
259_C7H9NOS_0-1-14-12 (-150,) energy =    -800.3183621
C           0.9564981    -0.6594033    -0.8585274
N           2.0748016    -0.9778873    -0.0969308
C           2.2948370    -2.3207357     0.4404057
H           1.3415877    -2.8122525     0.6281561
H           2.8298904    -2.2357193     1.3893688
H           2.8876030    -2.9461815    -0.2405709
C          -0.0776959    -1.7509852    -1.0871529
H          -0.8210942    -1.3453631    -1.7740385
H          -0.5822033    -2.0293952    -0.1542730
H           0.3566193    -2.6587332    -1.5192367
C           5.3685201     0.6576937     0.2344412
H           6.4400223     0.5653327     0.3756147
C           4.4894557    -0.4634744     0.1581493
H           4.8225691    -1.4902214     0.2499489
C           3.1756135    -0.0991976    -0.0276294
S           3.0131541     1.6413548    -0.1662154
C           4.7197126     1.8503143     0.0936413
H           5.1438840     2.8454988     0.0717722
O           0.7914326     0.4683053    -1.3034783
19
259_C7H9NOS_0-1-14-12 (-135,) energy =    -800.3162970
C           0.9947218    -0.7082280    -0.9299639
N           2.0611258    -0.9826702    -0.0759804
C           2.2353953    -2.2935317     0.5543511
H           1.2683126    -2.7090674     0.8399297
H           2.8343167    -2.1661092     1.4582094
H           2.7443045    -3.0111567    -0.1037348
C          -0.0433594    -1.8049155    -1.1155704
H          -0.7509994    -1.4532993    -1.8669344
H          -0.5897330    -2.0018044    -0.1855069
H           0.4001876    -2.7492747    -1.4491338
C           5.3738245     0.6404058     0.1387513
H           6.4546017     0.5510472     0.1550076
C           4.4938946    -0.4721969    -0.0145524
H           4.8313891    -1.4982236    -0.1089271
C           3.1688739    -0.1092323    -0.0160825
S           2.9894054     1.6269509     0.1316456
C           4.7103088     1.8304082     0.2384064
H           5.1275821     2.8257397     0.3137432
O           0.8782423     0.3756809    -1.4807100
19
259_C7H9NOS_0-1-14-12 (-120,) energy =    -800.3152478
C           1.0653520    -0.7641353    -1.0346458
N           2.0766341    -1.0060941    -0.1067853
C           2.1669509    -2.2456550     0.6704126
H           1.1727097    -2.5934199     0.9574745
H           2.7342410    -2.0435961     1.5809203
H           2.6714500    -3.0497061     0.1173346
C          -0.0264877    -1.8184476    -1.1487179
H          -0.6923378    -1.5087903    -1.9547679
H          -0.6077770    -1.8978887    -0.2224587
H           0.3773332    -2.8115435    -1.3747292
C           5.3689299     0.6726868     0.0259972
H           6.4462663     0.6259886    -0.0895270
C           4.4979231    -0.4289967    -0.2267823
H           4.8353177    -1.4097098    -0.5447696
C           3.1761213    -0.1224993    -0.0317474
S           2.9848107     1.5465406     0.4712890
C           4.6984273     1.8018274     0.4063784
H           5.1053848     2.7817992     0.6173455
O           1.0462469     0.2519180    -1.7099732
19
259_C7H9NOS_0-1-14-12 (-105,) energy =    -800.3152553
C           1.2345156    -1.3767368     0.6543144
N           2.2098384    -1.1422631    -0.3139316
C           2.2838211    -1.8732604    -1.5827235
H           1.2832307    -2.0830526    -1.9646955
H           2.8307450    -2.8213767    -1.4831661
H           2.8049638    -1.2516860    -2.3137672
C           0.0965499    -2.3117516     0.2692936
H          -0.5562492    -2.4034507     1.1378973
H           0.4594100    -3.3060606    -0.0144377
H          -0.4855335    -1.9168010    -0.5715101
C           4.8197819     1.4416254     0.1373449
H           5.1812336     2.4475245    -0.0461806
C           3.5659634     0.9509780    -0.3353266
H           2.8602093     1.5326896    -0.9182856
C           3.3232446    -0.3441913     0.0327508
S           4.6577316    -0.9884737     0.9794589
C           5.5166664     0.5114907     0.8582894
H           6.4795122     0.6236345     1.3388226
O           1.2860284    -0.8459547     1.7510911
19
259_C7H9NOS_0-1-14-12 (-90,) energy =    -800.3151708
C           1.2201978    -1.3179348     0.6148286
N           2.2345891    -1.1717496    -0.3316713
C           2.3259710    -1.9703981    -1.5571915
H           1.3311898    -2.1870508    -1.9503974
H           2.8556940    -2.9197647    -1.3964037
H           2.8716275    -1.3951004    -2.3084568
C           0.0749390    -2.2533353     0.2518693
H          -0.6021814    -2.2839843     1.1060391
H           0.4247254    -3.2684205     0.0331849
H          -0.4773599    -1.8947622    -0.6247102
C           4.7634902     1.4737166     0.2179420
H           5.0661369     2.5115545     0.1314225
C           3.4997444     0.9775547    -0.2217734
H           2.7243037     1.5863020    -0.6732876
C           3.3460421    -0.3638627    -0.0057827
S           4.7746734    -1.0443848     0.7645376
C           5.5568814     0.5023783     0.7629072
H           6.5550490     0.6040403     1.1676356
O           1.2447025    -0.7148324     1.6740030
19
259_C7H9NOS_0-1-14-12 (-75,) energy =    -800.3150193
C           1.1923437    -1.2505671     0.5551827
N           2.2489138    -1.1804524    -0.3558966
C           2.3686072    -2.0585954    -1.5231606
H           1.3851371    -2.2772502    -1.9424732
H           2.8658409    -3.0084771    -1.2820281
H           2.9574049    -1.5452882    -2.2866587
C           0.0599581    -2.2094414     0.2123527
H          -0.6494381    -2.1813391     1.0399754
H           0.4147224    -3.2371193     0.0764291
H          -0.4579848    -1.9109947    -0.7067390
C           4.7252450     1.4868325     0.3124330
H           4.9835565     2.5399058     0.3357480
C           3.4464121     0.9948480    -0.0865107
H           2.6135527     1.6210619    -0.3847499
C           3.3599280    -0.3687696    -0.0445669
S           4.8727916    -1.0770783     0.5163906
C           5.5990633     0.4921105     0.6524030
H           6.6305745     0.5845124     0.9650238
O           1.1689325    -0.5686495     1.5649439
19
259_C7H9NOS_0-1-14-12 (-60,) energy =    -800.3151308
C           1.1547415    -1.1683299     0.4897746
N           2.2553907    -1.1733126    -0.3727762
C           2.4062703    -2.1387314    -1.4648282
H           1.4367374    -2.3717904    -1.9071445
H           2.8733053    -3.0764811    -1.1328186
H           3.0349510    -1.6947603    -2.2396764
C           0.0467210    -2.1676756     0.1843965
H          -0.6889241    -2.0870370     0.9851993
H           0.4155878    -3.1979773     0.1348064
H          -0.4463965    -1.9430809    -0.7688839
C           4.7127082     1.4832474     0.3981958
H           4.9433925     2.5340918     0.5356506
C           3.4123105     0.9998066     0.0630301
H           2.5374559     1.6263721    -0.0581211
C           3.3671285    -0.3601223    -0.0736111
S           4.9493123    -1.0762910     0.2344542
C           5.6449295     0.4907165     0.5087026
H           6.7025997     0.5807903     0.7162773
O           1.0710066    -0.3930282     1.4264686
19
259_C7H9NOS_0-1-14-12 (-45,) energy =    -800.3155738
C           1.1054016    -1.1102676     0.3969426
N           2.2568730    -1.1707600    -0.3939022
C           2.4568461    -2.2063494    -1.4104405
H           1.5038963    -2.4953645    -1.8532561
H           2.9381358    -3.1049553    -0.9998204
H           3.0913270    -1.8051001    -2.2038178
C           0.0283583    -2.1510704     0.1195914
H          -0.7435164    -2.0203052     0.8785976
H           0.4115075    -3.1760975     0.1663012
H          -0.4262020    -2.0074284    -0.8679432
C           4.6836878     1.4798268     0.4980436
H           4.8920873     2.5128907     0.7549432
C           3.3707249     0.9890647     0.2277596
H           2.4710312     1.5858381     0.2845316
C           3.3565257    -0.3427795    -0.0912310
S           4.9859063    -1.0185313    -0.0427258
C           5.6554148     0.5281761     0.3802902
H           6.7255476     0.6358852     0.4925951
O           0.9516011    -0.2570885     1.2548471
19
259_C7H9NOS_0-1-14-12 (-30,) energy =    -800.3160067
C           1.0637251    -1.0555826     0.3416345
N           2.2603707    -1.1779996    -0.3675489
C           2.4959263    -2.2657501    -1.3192074
H           1.5515528    -2.6468408    -1.7025995
H           3.0489152    -3.0974110    -0.8614833
H           3.0761368    -1.8860134    -2.1642160
C          -0.0091812    -2.1059066     0.0808509
H          -0.8179452    -1.9094296     0.7853154
H           0.3550916    -3.1283439     0.2270288
H          -0.4105613    -2.0325636    -0.9369387
C           4.6853919     1.4610283     0.5837362
H           4.8904384     2.4649192     0.9402277
C           3.3633566     0.9553284     0.3976551
H           2.4615931     1.5059671     0.6175240
C           3.3510037    -0.3326355    -0.0763261
S           4.9958092    -0.9399643    -0.2830272
C           5.6656660     0.5704345     0.2561311
H           6.7386515     0.7026208     0.2739524
O           0.8651768    -0.1444174     1.1297200
19
259_C7H9NOS_0-1-14-12 (-15,) energy =    -800.3162129
C           1.0268503    -1.0191616     0.2776232
N           2.2639389    -1.1991269    -0.3409227
C           2.5334232    -2.3255082    -1.2361822
H           1.6070419    -2.8197110    -1.5155449
H           3.1928015    -3.0633524    -0.7608567
H           3.0161376    -1.9651086    -2.1500756
C          -0.0574179    -2.0549405     0.0010459
H          -0.9120951    -1.7805013     0.6199938
H           0.2554782    -3.0729448     0.2569258
H          -0.3731432    -2.0501208    -1.0487509
C           4.6886583     1.4356681     0.6434751
H           4.8998247     2.4016416     1.0900623
C           3.3700360     0.8972728     0.5474652
H           2.4820172     1.3836559     0.9172478
C           3.3443899    -0.3337322    -0.0645404
S           4.9750166    -0.8371438    -0.5196562
C           5.6546345     0.6303836     0.1160881
H           6.7199782     0.7996853     0.0432191
O           0.7987517    -0.0705821     1.0133739
19
259_C7H9NOS_0-1-14-12 (0,) energy =    -800.3162485
C           1.0040325    -1.0109731     0.2217651
N           2.2724409    -1.2452592    -0.3074677
C           2.5670668    -2.4054154    -1.1496934
H           1.6782142    -3.0142344    -1.2843126
H           3.3442898    -3.0268407    -0.6895262
H           2.9174939    -2.0838523    -2.1374863
C          -0.0979532    -2.0138368    -0.1039312
H          -0.9974755    -1.6553303     0.3972212
H           0.1308848    -3.0206002     0.2630854
H          -0.2980413    -2.0804539    -1.1792075
C           4.6944918     1.3901806     0.6906139
H           4.9216322     2.3088836     1.2212741
C           3.3959359     0.7974369     0.6897645
H           2.5394075     1.1991188     1.2054208
C           3.3436218    -0.3617053    -0.0498770
S           4.9238776    -0.7214828    -0.7526959
C           5.6198968     0.6990837    -0.0341365
H           6.6650027     0.9218120    -0.1985875
O           0.7609809    -0.0412212     0.9250398
19
259_C7H9NOS_0-1-14-12 (15,) energy =    -800.3162129
C           1.0002044    -0.9606536     0.1877149
N           2.2900534    -1.2563837    -0.2529803
C           2.5916989    -2.4532792    -1.0399314
H           1.7565083    -3.1476377    -1.0119479
H           3.4689067    -2.9588092    -0.6239393
H           2.7993166    -2.1994247    -2.0875871
C          -0.1139448    -1.9308228    -0.1896622
H          -1.0418882    -1.4956223     0.1823695
H           0.0203076    -2.9135908     0.2771570
H          -0.1980215    -2.0775057    -1.2718488
C           4.7193891     1.3681954     0.7472034
H           4.9775191     2.2310376     1.3521893
C           3.4543675     0.7121402     0.8318499
H           2.6488559     1.0173765     1.4798208
C           3.3573814    -0.3622036    -0.0207695
S           4.8482159    -0.5586864    -0.9472186
C           5.5741702     0.8070656    -0.1551335
H           6.5873732     1.0908383    -0.4037749
O           0.7522800     0.0314015     0.8566831
19
259_C7H9NOS_0-1-14-12 (30,) energy =    -800.3160067
C           0.9862915    -0.9503450     0.0915719
N           2.2914083    -1.3090417    -0.2517779
C           2.5967661    -2.5468800    -0.9720968
H           1.8154771    -3.2859419    -0.8064449
H           3.5376418    -2.9588180    -0.5980117
H           2.6949163    -2.3777253    -2.0531691
C          -0.1266607    -1.9112329    -0.3088640
H          -1.0681611    -1.4250220    -0.0516718
H          -0.0636935    -2.8576910     0.2412529
H          -0.1214891    -2.1422278    -1.3794065
C           4.7323601     1.2907527     0.7644819
H           5.0286413     2.0917987     1.4334131
C           3.5080265     0.5703061     0.9062368
H           2.7642003     0.7715385     1.6618505
C           3.3561160    -0.4077195    -0.0445757
S           4.7373951    -0.4327865    -1.1438607
C           5.5015593     0.8672251    -0.2797309
H           6.4768836     1.2148079    -0.5912076
O           0.7329193     0.0784393     0.6983063
19
259_C7H9NOS_0-1-14-12 (45,) energy =    -800.3155737
C           0.9701576    -0.9370212     0.0139745
N           2.2841462    -1.3458185    -0.2335769
C           2.6002352    -2.6245726    -0.8743999
H           1.8606575    -3.3787952    -0.6062773
H           3.5756836    -2.9656951    -0.5206295
H           2.6352933    -2.5435213    -1.9698204
C          -0.1348848    -1.9127003    -0.3696346
H          -1.0832951    -1.4021924    -0.1996826
H          -0.1090108    -2.8157357     0.2519196
H          -0.0752194    -2.2253465    -1.4176642
C           4.7455384     1.2170463     0.8076388
H           5.0898141     1.9474699     1.5319409
C           3.5689401     0.4290148     0.9875964
H           2.9034133     0.5086734     1.8358512
C           3.3450683    -0.4363084    -0.0501438
S           4.5931290    -0.2717646    -1.2867265
C           5.4088650     0.9469124    -0.3545849
H           6.3365599     1.3673443    -0.7179153
O           0.7113667     0.1369814     0.5308048
19
259_C7H9NOS_0-1-14-12 (60,) energy =    -800.3151309
C           0.9485022    -0.8541629    -0.0862004
N           2.2598078    -1.3138268    -0.2430730
C           2.5796412    -2.6391663    -0.7802563
H           1.8391021    -3.3723926    -0.4578725
H           3.5533433    -2.9475593    -0.3935525
H           2.6232607    -2.6462527    -1.8783325
C          -0.1626009    -1.8430342    -0.4136669
H          -1.1080739    -1.3089492    -0.3147040
H          -0.1643841    -2.6911812     0.2813090
H          -0.0786292    -2.2441236    -1.4296024
C           4.7989190     1.1534958     0.8321188
H           5.2149275     1.7941206     1.6021343
C           3.6604288     0.3167214     1.0339722
H           3.0947648     0.2628030     1.9557877
C           3.3294909    -0.4113946    -0.0752896
S           4.4232272    -0.0535661    -1.4119875
C           5.3265993     1.0519831    -0.4239048
H           6.2013085     1.5432061    -0.8281918
O           0.7011331     0.2711276     0.3113441
19
259_C7H9NOS_0-1-14-12 (75,) energy =    -800.3150193
C           0.9350688    -0.8242761    -0.1929872
N           2.2456356    -1.3039811    -0.2524107
C           2.5897580    -2.6637023    -0.6775227
H           1.8315074    -3.3743220    -0.3444733
H           3.5413738    -2.9419402    -0.2191489
H           2.6927778    -2.7467696    -1.7684614
C          -0.1725328    -1.8338264    -0.4637359
H          -1.1187374    -1.2930259    -0.4287481
H          -0.1908629    -2.6265146     0.2934755
H          -0.0664391    -2.3115733    -1.4440243
C           4.8446581     1.0844011     0.8578464
H           5.3305919     1.6347344     1.6561158
C           3.7482328     0.1945959     1.0644644
H           3.2893377    -0.0012672     2.0266530
C           3.3095163    -0.3919894    -0.0897186
S           4.2441974     0.1689827    -1.4742305
C           5.2296779     1.1643902    -0.4513550
H           6.0405600     1.7401179    -0.8771384
O           0.6884720     0.3383117     0.0767847
19
259_C7H9NOS_0-1-14-12 (90,) energy =    -800.3151708
C           0.9190294    -0.7956038    -0.2811438
N           2.2256558    -1.2832206    -0.2467998
C           2.5878747    -2.6651863    -0.5739943
H           1.8098273    -3.3554919    -0.2434528
H           3.5122819    -2.9169348    -0.0493957
H           2.7514156    -2.8083509    -1.6512660
C          -0.1860872    -1.8153417    -0.5202744
H          -1.1291367    -1.2691629    -0.5574738
H          -0.2365612    -2.5536977     0.2886033
H          -0.0483156    -2.3602045    -1.4608673
C           4.9124805     1.0074231     0.8621584
H           5.4770953     1.4682876     1.6652781
C           3.8444668     0.0845751     1.0725867
H           3.4925010    -0.2356885     2.0469062
C           3.2832200    -0.3602473    -0.0922341
S           4.0678075     0.3711234    -1.4875878
C           5.1514186     1.2529670    -0.4616899
H           5.8986928     1.9034159    -0.8964053
O           0.6752604     0.3871113    -0.1139748
19
259_C7H9NOS_0-1-14-12 (105,) energy =    -800.3152553
C           0.9011554    -0.7838660    -0.3501687
N           2.2042734    -1.2613635    -0.2174585
C           2.5853860    -2.6552271    -0.4655624
H           1.7995095    -3.3343542    -0.1304819
H           3.4918857    -2.8755256     0.1019743
H           2.7886349    -2.8460503    -1.5286889
C          -0.1887109    -1.8205179    -0.5846991
H          -1.1314739    -1.2825413    -0.6886580
H          -0.2703799    -2.5197974     0.2555956
H          -0.0084378    -2.4087621    -1.4915022
C           4.9858853     0.9385180     0.8385423
H           5.6326600     1.3171162     1.6224488
C           3.9410494    -0.0076758     1.0604587
H           3.6956910    -0.4348656     2.0267019
C           3.2528510    -0.3243209    -0.0788306
S           3.8938369     0.5503665    -1.4631256
C           5.0805415     1.3285849    -0.4689150
H           5.7693531     2.0397030    -0.9052733
O           0.6480342     0.4062954    -0.2680189
19
259_C7H9NOS_0-1-14-12 (120,) energy =    -800.3152486
C           0.9018894    -0.6554989    -0.5081117
N           2.2040926    -1.1381138    -0.3917968
C           2.5185014    -2.5644045    -0.2664300
H           1.8509740    -3.1620741    -0.8902465
H           2.4391240    -2.9201647     0.7699031
H           3.5421053    -2.7251768    -0.6099075
C          -0.2080820    -1.6933391    -0.5955252
H          -1.1553753    -1.1535729    -0.6112408
H          -0.1991953    -2.3836986     0.2551471
H          -0.1282793    -2.2913910    -1.5110480
C           5.1601128     0.7907659     0.7109204
H           5.9276497     0.9807331     1.4532125
C           4.1319340    -0.1861843     0.8677469
H           4.0336950    -0.8305846     1.7348187
C           3.2667414    -0.2284963    -0.1947717
S           3.7113162     0.9486188    -1.4159221
C           5.0603390     1.4801757    -0.4655288
H           5.6787502     2.2953705    -0.8168957
O           0.6646512     0.5403662    -0.5558461
19
259_C7H9NOS_0-1-14-12 (135,) energy =    -800.3162966
C           0.9186298    -0.6698717    -0.6435222
N           2.2145589    -1.1358910    -0.4314979
C           2.4959701    -2.5411254    -0.1276104
H           1.8338896    -3.1930713    -0.6986435
H           2.3780180    -2.7711005     0.9401994
H           3.5256784    -2.7584476    -0.4180319
C          -0.1992540    -1.7019660    -0.6330827
H          -1.1390540    -1.1583428    -0.7339257
H          -0.2175757    -2.2894499     0.2912496
H          -0.1080006    -2.4014853    -1.4724992
C           5.2247567     0.7104655     0.6562667
H           6.0658815     0.8013863     1.3349036
C           4.2475363    -0.3250155     0.7483024
H           4.2747819    -1.1147870     1.4906452
C           3.2724242    -0.2261745    -0.2143661
S           3.5263590     1.1789579    -1.2288726
C           4.9739858     1.5865652    -0.3615627
H           5.5218254     2.4813424    -0.6256279
O           0.6907477     0.5102371    -0.8605073
19
259_C7H9NOS_0-1-14-12 (150,) energy =    -800.3183621
C           0.9392965    -0.6677031    -0.7357275
N           2.2132890    -1.1201912    -0.4127356
C           2.4693873    -2.5013761    -0.0039610
H           1.7478562    -3.1716508    -0.4683416
H           2.4178741    -2.6259740     1.0860466
H           3.4690772    -2.7872080    -0.3400536
C          -0.1997192    -1.6749429    -0.6974208
H          -1.1200584    -1.1209352    -0.8845922
H          -0.2762022    -2.1878298     0.2671581
H          -0.0888781    -2.4377365    -1.4772802
C           5.2805780     0.6784989     0.5825098
H           6.1882049     0.7070669     1.1757981
C           4.3483417    -0.4006005     0.6281807
H           4.4832879    -1.2793564     1.2471869
C           3.2720990    -0.2115044    -0.2080950
S           3.3692133     1.3359406    -1.0273050
C           4.8982792     1.6727885    -0.2709106
H           5.3929462     2.6150824    -0.4662990
O           0.7435659     0.4925269    -1.0711593
19
259_C7H9NOS_0-1-14-12 (165,) energy =    -800.3200947
C           0.9250922    -0.6983062    -0.7813466
N           2.1728891    -1.1149401    -0.3427143
C           2.4382110    -2.4772710     0.1151980
H           1.6424609    -3.1449142    -0.2058005
H           2.5192216    -2.5217792     1.2086691
H           3.3795066    -2.8281363    -0.3184195
C          -0.2064023    -1.7147743    -0.8027689
H          -1.1025430    -1.1808793    -1.1201738
H          -0.3859299    -2.1616854     0.1809628
H          -0.0139198    -2.5260993    -1.5142547
C           5.2877163     0.6770625     0.5001839
H           6.2538257     0.6717661     0.9935201
C           4.3946364    -0.4353251     0.5207918
H           4.6212549    -1.3664670     1.0245366
C           3.2280468    -0.1970383    -0.1712856
S           3.2036775     1.4291031    -0.8336864
C           4.7919268     1.7411307    -0.1945195
H           5.2470124     2.7104376    -0.3507176
O           0.7398209     0.4522201    -1.1590156
19
259_C7H9NOS_0-1-14-12 (180,) energy =    -800.3207104
C           0.9346795    -0.7070958    -0.7888993
N           2.1449058    -1.0995162    -0.2402694
C           2.4042494    -2.4558650     0.2364900
H           1.5265703    -3.0806130     0.0959057
H           2.6573673    -2.4414863     1.3026797
H           3.2419912    -2.8981587    -0.3145270
C          -0.1787468    -1.7377142    -0.9018415
H          -1.0300873    -1.2298081    -1.3557315
H          -0.4822585    -2.1290028     0.0755392
H           0.1042532    -2.5858113    -1.5351751
C           5.3370752     0.6295219     0.4216361
H           6.3522097     0.5832723     0.8014044
C           4.4526342    -0.4898494     0.4207664
H           4.7339686    -1.4638072     0.8000775
C           3.2160847    -0.1944164    -0.1098698
S           3.1284961     1.4847552    -0.6196925
C           4.7691343     1.7527674    -0.1033826
H           5.2101171     2.7338735    -0.2222257
O           0.7610486     0.4427945    -1.1757163
