24
339_C10H13N_0-6-19-17 (-165,) energy =    -443.6418140
C           1.6927501    -1.7662038     0.6720656
H           2.2716965    -2.6126603     1.0747153
C           0.3937149    -2.2446468     0.0012739
H          -0.3839140    -1.4784464     0.1040902
H           0.0112042    -3.1690499     0.4445028
H           1.4963544    -1.0811814     1.5078210
N           2.4210739    -1.0918219    -0.4024824
C           1.7579544    -1.2284927    -1.6946527
H           2.4856465    -1.4318437    -2.4903221
H           1.2149793    -0.3087477    -1.9747897
C           0.7883661    -2.3970835    -1.4766083
H           1.3091046    -3.3490574    -1.6341900
H          -0.0668905    -2.3635853    -2.1582610
C           5.5587406     1.6345266     0.3109911
H           6.3675882     2.3353896     0.4952027
C           4.9543088     1.5569848    -0.9448067
H           5.2902540     2.2059702    -1.7502172
C           3.9144038     0.6635532    -1.1902421
H           3.4581199     0.6357573    -2.1739030
C           3.4475205    -0.1956888    -0.1704415
C           4.0660542    -0.1115165     1.0976631
H           3.7431082    -0.7656536     1.9006906
C           5.1013517     0.7910048     1.3253530
H           5.5579756     0.8294630     2.3116357
24
339_C10H13N_0-6-19-17 (-150,) energy =    -443.6407793
C           1.6803810    -1.7374758     0.6967494
H           2.1711577    -2.5823613     1.2022017
C           0.3751577    -2.1815883     0.0102165
H          -0.3635618    -1.3723352     0.0519556
H          -0.0690390    -3.0606853     0.4868699
H           1.5064912    -0.9622163     1.4552205
N           2.5197856    -1.2261033    -0.3976876
C           1.8261776    -1.3155555    -1.6806657
H           2.5316729    -1.5485213    -2.4871774
H           1.3217176    -0.3688732    -1.9459842
C           0.7973003    -2.4254376    -1.4474928
H           1.2751438    -3.4069496    -1.5494764
H          -0.0376628    -2.3788813    -2.1532137
C           5.4991299     1.6731119     0.3408465
H           6.2663727     2.4170456     0.5343123
C           4.8647132     1.6111027    -0.9002589
H           5.1328086     2.3162641    -1.6835473
C           3.8748376     0.6638115    -1.1561908
H           3.3950174     0.6478958    -2.1286886
C           3.5018495    -0.2711443    -0.1671825
C           4.1468997    -0.1983608     1.0872571
H           3.8871948    -0.9079785     1.8664445
C           5.1273114     0.7593342     1.3296564
H           5.6085458     0.7867088     2.3044635
24
339_C10H13N_0-6-19-17 (-135,) energy =    -443.6384278
C           1.6232995    -1.6405388     0.7093410
H           2.0499152    -2.4318040     1.3409082
C           0.3432556    -2.1258516    -0.0021974
H          -0.3941730    -1.3154706    -0.0409222
H          -0.1241060    -2.9718609     0.5108229
H           1.4337828    -0.7740838     1.3575843
N           2.5568166    -1.2920435    -0.3828086
C           1.8717146    -1.3822942    -1.6721723
H           2.5829049    -1.6371309    -2.4662125
H           1.3792523    -0.4341295    -1.9565776
C           0.8178364    -2.4626989    -1.4255167
H           1.2849189    -3.4540965    -1.4524334
H           0.0115307    -2.4441644    -2.1652149
C           5.4814198     1.6719808     0.3503716
H           6.2336483     2.4304420     0.5469897
C           4.7750419     1.6673005    -0.8520868
H           4.9690568     2.4329799    -1.5995458
C           3.8014727     0.7018437    -1.1096376
H           3.2635845     0.7310475    -2.0509241
C           3.5311529    -0.3124279    -0.1698127
C           4.2450224    -0.2938069     1.0470078
H           4.0519787    -1.0632408     1.7886523
C           5.2029582     0.6836008     1.2981242
H           5.7412245     0.6679262     2.2428053
24
339_C10H13N_0-6-19-17 (-120,) energy =    -443.6354979
C           1.4922760    -1.4174728     0.7030106
H           1.8842341    -1.9892661     1.5516467
C           0.3135137    -2.1443385     0.0068969
H          -0.5513565    -1.4754658    -0.0594802
H          -0.0074875    -3.0343706     0.5562919
H           1.1832720    -0.4334950     1.0877880
N           2.5292723    -1.2780779    -0.3438973
C           1.8685245    -1.3755796    -1.6443695
H           2.5994931    -1.6144068    -2.4244053
H           1.3542788    -0.4405667    -1.9387573
C           0.8379628    -2.4794462    -1.4048240
H           1.3362104    -3.4549567    -1.4101857
H           0.0476657    -2.4947615    -2.1618337
C           5.5375937     1.6181228     0.3562454
H           6.3125622     2.3551996     0.5466286
C           4.7496536     1.6992261    -0.7906552
H           4.9024990     2.5093021    -1.4997726
C           3.7464102     0.7595398    -1.0370692
H           3.1400401     0.8536293    -1.9316564
C           3.5337768    -0.3091522    -0.1485551
C           4.3324238    -0.3793748     1.0097913
H           4.1823610    -1.1998816     1.7056196
C           5.3164200     0.5722923     1.2574166
H           5.9228812     0.4906841     2.1561419
24
339_C10H13N_0-6-19-17 (-105,) energy =    -443.6335385
C           1.3184549    -1.2104978     0.6110762
H           1.6377011    -1.4169989     1.6368568
C           0.3264225    -2.2567289     0.0572610
H          -0.7025844    -1.8898171     0.1211865
H           0.3757476    -3.1879126     0.6294218
H           0.8683615    -0.2012644     0.5995335
N           2.4619936    -1.2831998    -0.3158912
C           1.8566028    -1.4166693    -1.6415475
H           2.6121239    -1.6995722    -2.3815189
H           1.3792459    -0.4788636    -1.9851616
C           0.7784531    -2.4870732    -1.4130308
H           1.2125096    -3.4851859    -1.5255536
H          -0.0436396    -2.3986794    -2.1299384
C           5.5443667     1.5401586     0.3860805
H           6.3395703     2.2548900     0.5791155
C           4.7064154     1.6978795    -0.7165948
H           4.8416275     2.5437006    -1.3863355
C           3.6790538     0.7845532    -0.9667361
H           3.0327457     0.9331587    -1.8256485
C           3.4939252    -0.3254626    -0.1277864
C           4.3454669    -0.4767842     0.9807164
H           4.2122718    -1.3408297     1.6259724
C           5.3537792     0.4473611     1.2373349
H           6.0038902     0.3067963     2.0972763
24
339_C10H13N_0-6-19-17 (-90,) energy =    -443.6317108
C           1.2550200    -1.1076883     0.5596912
H           1.5035004    -1.2252860     1.6192668
C           0.2703444    -2.1758285     0.0346525
H          -0.7500176    -1.7816897    -0.0008311
H           0.2573758    -3.0544080     0.6864216
H           0.8339295    -0.0935338     0.4284765
N           2.4538207    -1.2958873    -0.2749160
C           1.9331468    -1.5259092    -1.6248892
H           2.7266136    -1.8943607    -2.2830183
H           1.5100434    -0.6119168    -2.0837844
C           0.8083654    -2.5437421    -1.3781854
H           1.2172023    -3.5587073    -1.3765735
H           0.0366981    -2.4968832    -2.1528148
C           5.5359519     1.5395301     0.3940011
H           6.3302804     2.2575697     0.5790947
C           4.5938871     1.7768978    -0.6072592
H           4.6481693     2.6854666    -1.2020291
C           3.5693378     0.8587045    -0.8464564
H           2.8385676     1.0642720    -1.6228611
C           3.4898190    -0.3275170    -0.1014305
C           4.4416508    -0.5571964     0.9031999
H           4.3790464    -1.4803668     1.4726515
C           5.4523591     0.3690741     1.1525847
H           6.1839250     0.1713016     1.9319733
24
339_C10H13N_0-6-19-17 (-75,) energy =    -443.6336435
C           1.1070840    -0.9476956     0.2621775
H           1.4541451    -1.3097227     1.2469298
C           0.1183566    -1.9515165    -0.3690652
H          -0.6932765    -1.4316627    -0.8866177
H          -0.3374639    -2.5851090     0.3979545
H           0.6789009     0.0483144     0.4096077
N           2.2220260    -0.8991724    -0.7009536
C           2.4162989    -2.2916764    -1.1075671
H           2.8686090    -2.9073271    -0.3065511
H           3.0706091    -2.3471915    -1.9834775
C           0.9799066    -2.7689901    -1.3736490
H           0.8783899    -3.8503061    -1.2394694
H           0.6915869    -2.5331902    -2.4024810
C           5.5662071     1.5051285     0.2995921
H           6.4187430     2.1343733     0.5397433
C           4.3424809     2.0784302    -0.0610309
H           4.2414531     3.1597364    -0.1109000
C           3.2569336     1.2717342    -0.3869671
H           2.3162430     1.7146875    -0.7025541
C           3.3556983    -0.1300979    -0.3258551
C           4.5900792    -0.6980350     0.0246031
H           4.7052027    -1.7764767     0.0575988
C           5.6832432     0.1169085     0.3312011
H           6.6312254    -0.3434370     0.5988040
24
339_C10H13N_0-6-19-17 (-60,) energy =    -443.6357111
C           1.0175191    -0.7399109     0.0861761
H           1.2430620    -0.6852359     1.1618715
C           0.1785579    -1.9988836    -0.2488024
H          -0.8404911    -1.7484622    -0.5584525
H           0.0998238    -2.6418030     0.6345867
H           0.4949512     0.1851941    -0.1830647
N           2.2565962    -0.8780881    -0.7138023
C           2.4128588    -2.2907698    -1.0582298
H           2.8169684    -2.8969126    -0.2249824
H           3.0926068    -2.3994336    -1.9102650
C           0.9749390    -2.7149863    -1.3585430
H           0.8414877    -3.8012173    -1.3478048
H           0.6807104    -2.3437016    -2.3462642
C           5.6292462     1.4476423     0.3544257
H           6.4920113     2.0552813     0.6122796
C           4.3968093     2.0468120     0.0755349
H           4.2982263     3.1291750     0.1067801
C           3.2951138     1.2714069    -0.2695616
H           2.3505776     1.7483030    -0.5154313
C           3.3838779    -0.1346471    -0.3110579
C           4.6302840    -0.7275201    -0.0448421
H           4.7425043    -1.8054472    -0.0909146
C           5.7363067     0.0600929     0.2828166
H           6.6884836    -0.4236158     0.4872091
24
339_C10H13N_0-6-19-17 (-45,) energy =    -443.6386865
C           0.9681677    -0.6251072    -0.1304451
H           1.0763748    -0.2799341     0.9065021
C           0.2175124    -1.9689733    -0.2213720
H          -0.8474656    -1.8391177    -0.4366368
H           0.2988851    -2.5089677     0.7294197
H           0.4367554     0.1630544    -0.6816995
N           2.2887649    -0.8823997    -0.7460194
C           2.4191424    -2.3041486    -1.0694154
H           2.8499067    -2.8891616    -0.2364265
H           3.0710922    -2.4389015    -1.9401748
C           0.9731860    -2.7356591    -1.3185504
H           0.8394389    -3.8201584    -1.2591241
H           0.6501913    -2.4051266    -2.3127266
C           5.6451212     1.4078782     0.4205780
H           6.5061627     2.0048832     0.7068736
C           4.3932605     2.0028772     0.2408617
H           4.2756024     3.0750020     0.3792051
C           3.2911298     1.2425848    -0.1362235
H           2.3315371     1.7255560    -0.2957623
C           3.4006906    -0.1533912    -0.3147594
C           4.6700278    -0.7418629    -0.1504847
H           4.8026634    -1.8073576    -0.3028234
C           5.7703575     0.0345861     0.2144944
H           6.7365169    -0.4481018     0.3412599
24
339_C10H13N_0-6-19-17 (-30,) energy =    -443.6409179
C           0.9639903    -0.5925260    -0.2318055
H           0.9855319    -0.1560951     0.7758256
C           0.2038152    -1.9311573    -0.2683915
H          -0.8503275    -1.8059612    -0.5338293
H           0.2436667    -2.4108736     0.7168500
H           0.4967978     0.1486926    -0.8971851
N           2.3209071    -0.9238682    -0.6933639
C           2.4401624    -2.3461717    -1.0076865
H           2.8577231    -2.9235147    -0.1633205
H           3.1024785    -2.4983186    -1.8683724
C           0.9945219    -2.7677987    -1.2866976
H           0.8424217    -3.8454028    -1.1727975
H           0.7145169    -2.4910751    -2.3100194
C           5.6566720     1.4147148     0.4147131
H           6.5138073     2.0213127     0.6919702
C           4.3793047     1.9756165     0.3457164
H           4.2361042     3.0311285     0.5647653
C           3.2772869     1.2052985    -0.0135592
H           2.2988109     1.6701535    -0.0817352
C           3.4195852    -0.1705502    -0.3005838
C           4.7154160    -0.7261489    -0.2402723
H           4.8683907    -1.7759548    -0.4655342
C           5.8098879     0.0610575     0.1134357
H           6.7950453    -0.3974588     0.1568908
24
339_C10H13N_0-6-19-17 (-15,) energy =    -443.6418324
C           0.9552635    -0.5857601    -0.2477368
H           0.8856142    -0.0976592     0.7336284
C           0.1666759    -1.9055811    -0.2920971
H          -0.8674842    -1.7641460    -0.6204199
H           0.1409562    -2.3577598     0.7065915
H           0.5804310     0.1316395    -0.9952373
N           2.3313517    -0.9847870    -0.5418597
C           2.4375966    -2.3934617    -0.9065946
H           2.8308557    -3.0025309    -0.0740220
H           3.1164932    -2.5286800    -1.7580256
C           0.9929658    -2.7845137    -1.2445254
H           0.8079145    -3.8551569    -1.1151819
H           0.7711091    -2.5272842    -2.2871085
C           5.6701787     1.4323317     0.3505718
H           6.5297005     2.0560122     0.5777487
C           4.3782865     1.9612884     0.3766217
H           4.2247274     3.0094773     0.6224800
C           3.2707060     1.1697320     0.0849432
H           2.2810264     1.6141189     0.0958760
C           3.4260210    -0.1970704    -0.2398611
C           4.7371346    -0.7235121    -0.2667244
H           4.8975301    -1.7688669    -0.5076458
C           5.8331774     0.0850290     0.0238111
H           6.8290256    -0.3512600    -0.0023767
24
339_C10H13N_0-6-19-17 (0,) energy =    -443.6418959
C           0.9425555    -0.5941547    -0.2237785
H           0.7679490    -0.0788359     0.7293398
C           0.1222113    -1.8862430    -0.3411299
H          -0.8844062    -1.7089437    -0.7316464
H           0.0230628    -2.3548750     0.6452628
H           0.6909810     0.1158209    -1.0303596
N           2.3229400    -1.0555893    -0.3256912
C           2.4227003    -2.4218420    -0.8343141
H           2.7876320    -3.1119425    -0.0562970
H           3.1250810    -2.4816356    -1.6763210
C           0.9856655    -2.7637153    -1.2610553
H           0.7658222    -3.8319497    -1.1728602
H           0.8303075    -2.4757022    -2.3076837
C           5.6630395     1.4505710     0.2650277
H           6.5231015     2.0954938     0.4189286
C           4.3656382     1.9556530     0.3669595
H           4.2078866     3.0061124     0.6002635
C           3.2563678     1.1373842     0.1698825
H           2.2621587     1.5643338     0.2456307
C           3.4162160    -0.2327918    -0.1386396
C           4.7334669    -0.7367151    -0.2353517
H           4.8975684    -1.7868056    -0.4523788
C           5.8301886     0.0979380    -0.0375263
H           6.8303294    -0.3215564    -0.1181887
24
339_C10H13N_0-6-19-17 (15,) energy =    -443.6418323
C           0.9445748    -0.6055241    -0.1664469
H           0.6475932    -0.4896625     0.8881969
C           0.1325343    -1.7133194    -0.8588252
H           0.0120351    -1.4783128    -1.9230677
H          -0.8665711    -1.8298007    -0.4281024
H           0.8063495     0.3702263    -0.6512507
N           2.3310214    -1.0582456    -0.2778764
C           2.4348646    -2.3990936    -0.8432250
H           3.1797738    -2.9968986    -0.3030882
H           2.7422643    -2.3728613    -1.9033623
C           1.0152003    -2.9608938    -0.6933298
H           0.8859208    -3.3868726     0.3087267
H           0.7966172    -3.7455271    -1.4239539
C           5.6390045     1.5130935     0.2052685
H           6.4909062     2.1744738     0.3326090
C           4.3607722     1.9114450     0.6015365
H           4.2114227     2.8923433     1.0467725
C           3.2631071     1.0696307     0.4438690
H           2.2853639     1.4004075     0.7780286
C           3.4145214    -0.2131877    -0.1298689
C           4.7118598    -0.6092370    -0.5257232
H           4.8674808    -1.5845709    -0.9740758
C           5.7985963     0.2451295    -0.3561252
H           6.7835919    -0.0886016    -0.6742043
24
339_C10H13N_0-6-19-17 (30,) energy =    -443.6409178
C           0.9388668    -0.5846421    -0.1918819
H           0.5440905    -0.4108715     0.8202311
C           0.1491885    -1.6911662    -0.9151132
H           0.0998885    -1.4746906    -1.9889405
H          -0.8775307    -1.7801556    -0.5473070
H           0.8934950     0.3734766    -0.7268577
N           2.3184017    -1.0919598    -0.1321911
C           2.4245436    -2.4101414    -0.7542776
H           3.1474474    -3.0351857    -0.2163826
H           2.7601461    -2.3466635    -1.8049997
C           0.9944215    -2.9525937    -0.6770230
H           0.8017119    -3.3601647     0.3224199
H           0.8061224    -3.7442069    -1.4086137
C           5.6182652     1.5264089     0.1500308
H           6.4669990     2.1990751     0.2318573
C           4.3650816     1.8969463     0.6432971
H           4.2330177     2.8650946     1.1206188
C           3.2744473     1.0379034     0.5460551
H           2.3166479     1.3404678     0.9574275
C           3.4025909    -0.2261403    -0.0715350
C           4.6749248    -0.5972858    -0.5561136
H           4.8174212    -1.5644210    -1.0257962
C           5.7588848     0.2716724    -0.4436223
H           6.7254090    -0.0407109    -0.8320730
24
339_C10H13N_0-6-19-17 (45,) energy =    -443.6386861
C           0.9393650    -0.5414263    -0.2838204
H           0.4737209    -0.2583848     0.6703843
C           0.1637329    -1.6889583    -0.9616549
H           0.1553258    -1.5449262    -2.0485831
H          -0.8770847    -1.7441328    -0.6284307
H           0.9743351     0.3610400    -0.9086836
N           2.2973309    -1.0816990    -0.0532596
C           2.4163646    -2.4070275    -0.6634496
H           3.1315803    -3.0212854    -0.1043959
H           2.7645748    -2.3599131    -1.7113857
C           0.9840588    -2.9407743    -0.6115378
H           0.7496863    -3.2844942     0.4028182
H           0.8179341    -3.7739996    -1.3012418
C           5.6085071     1.5387663     0.1365253
H           6.4584287     2.2118479     0.2021016
C           4.3906168     1.8719039     0.7358639
H           4.2888586     2.8072043     1.2811605
C           3.3026962     1.0082331     0.6636014
H           2.3716262     1.2721209     1.1565122
C           3.3901161    -0.2101254    -0.0439296
C           4.6270842    -0.5464086    -0.6282254
H           4.7434064    -1.4847887    -1.1592258
C           5.7150046     0.3224227    -0.5368931
H           6.6555408     0.0398722    -1.0039464
24
339_C10H13N_0-6-19-17 (60,) energy =    -443.6357114
C           0.9626969    -0.5078759    -0.5382818
H           0.4876166     0.0521584     0.2753542
C           0.1186366    -1.7338852    -0.9692030
H          -0.0475388    -1.7117521    -2.0516961
H          -0.8653845    -1.7491710    -0.4911675
H           1.1057368     0.1921450    -1.3752622
N           2.2557540    -1.0702228    -0.0844147
C           2.4011147    -2.3976259    -0.6806621
H           3.1421996    -2.9826738    -0.1253872
H           2.7228120    -2.3633239    -1.7391385
C           0.9803286    -2.9549146    -0.5879849
H           0.7741997    -3.2669607     0.4416419
H           0.8177665    -3.8149771    -1.2450175
C           5.5953311     1.5143520     0.2191846
H           6.4511471     2.1762740     0.3167344
C           4.4042040     1.7893181     0.8983798
H           4.3318140     2.6660778     1.5373275
C           3.3125957     0.9349335     0.7866365
H           2.4026955     1.1402745     1.3433597
C           3.3675922    -0.2056149    -0.0396156
C           4.5737502    -0.4828680    -0.7060833
H           4.6609579    -1.3647192    -1.3316833
C           5.6713429     0.3707797    -0.5734925
H           6.5919056     0.1351090    -1.1020886
24
339_C10H13N_0-6-19-17 (75,) energy =    -443.6336370
C           1.1128735    -0.5582278    -0.7951588
H           0.7010317     0.3080256    -0.2686330
C           0.1448397    -1.7614560    -0.8437401
H          -0.3556989    -1.8174878    -1.8153011
H          -0.6346689    -1.6741345    -0.0811396
H           1.3781721    -0.2308025    -1.8165247
N           2.2962844    -1.0825842    -0.0888381
C           2.4736108    -2.4349860    -0.6194080
H           3.1899795    -2.9947882    -0.0095869
H           2.8420626    -2.4363737    -1.6632926
C           1.0461144    -3.0000888    -0.5767235
H           0.8394288    -3.4143478     0.4147612
H           0.8994816    -3.7996594    -1.3093648
C           5.6361277     1.4968097     0.3062370
H           6.4892152     2.1583955     0.4286399
C           4.4620369     1.7137079     1.0346969
H           4.4010459     2.5430182     1.7350165
C           3.3769742     0.8548510     0.8916032
H           2.4773089     1.0002330     1.4833422
C           3.4242014    -0.2230237    -0.0109000
C           4.6097816    -0.4414363    -0.7290965
H           4.6858300    -1.2783081    -1.4156042
C           5.7041295     0.4123592    -0.5662720
H           6.6139857     0.2244180    -1.1311124
24
339_C10H13N_0-6-19-17 (90,) energy =    -443.6317108
C           1.2368807    -0.5406364    -1.1211674
H           0.8575982     0.1848693    -0.3776418
C           0.2634212    -1.7317240    -1.2621178
H           0.1745055    -2.0468406    -2.3059896
H          -0.7389869    -1.4589227    -0.9178787
H           1.4003717     0.0034978    -2.0568283
N           2.4895328    -1.1643721    -0.6619010
C           2.0664429    -2.1665408     0.3194699
H           1.7070782    -1.7171784     1.2649404
H           2.8962904    -2.8380421     0.5622034
C           0.8961468    -2.8592230    -0.3964739
H           0.1874285    -3.3011121     0.3107526
H           1.2730743    -3.6630362    -1.0360949
C           5.5954466     1.5744334     0.2539639
H           6.3945564     2.2776831     0.4722794
C           4.7398456     1.1462226     1.2693131
H           4.8664438     1.5203370     2.2823316
C           3.7094017     0.2452542     0.9928413
H           3.0463247    -0.0695586     1.7930346
C           3.5378917    -0.2621960    -0.3039190
C           4.4032025     0.1744011    -1.3181374
H           4.2697970    -0.2267270    -2.3190057
C           5.4193192     1.0876337    -1.0438844
H           6.0831983     1.4104955    -1.8418657
24
339_C10H13N_0-6-19-17 (105,) energy =    -443.6335385
C           1.2931141    -0.5909860    -1.2285693
H           0.8756565     0.2014337    -0.5812110
C           0.3151706    -1.7818617    -1.3329093
H           0.2928140    -2.1853636    -2.3495658
H          -0.7042353    -1.4716687    -1.0835952
H           1.5270394    -0.1367595    -2.1959081
N           2.5011765    -1.1785093    -0.6222463
C           1.9946873    -2.0905715     0.4040452
H           1.5731752    -1.5544215     1.2759928
H           2.7955026    -2.7432175     0.7661990
C           0.8706990    -2.8352706    -0.3324782
H           0.1085770    -3.2105105     0.3574271
H           1.2820010    -3.6931972    -0.8729309
C           5.6044548     1.5703851     0.2599784
H           6.4037328     2.2757507     0.4698969
C           4.8579533     1.0199893     1.3005212
H           5.0690367     1.3007582     2.3295308
C           3.8256802     0.1163208     1.0359315
H           3.2513428    -0.2916368     1.8613021
C           3.5440492    -0.2762059    -0.2819628
C           4.3038499     0.2830893    -1.3244096
H           4.0960989    -0.0268828    -2.3449134
C           5.3169646     1.1988902    -1.0570286
H           5.8952456     1.6139767    -1.8787320
24
339_C10H13N_0-6-19-17 (120,) energy =    -443.6354979
C           1.4528748    -0.6970554    -1.4401822
H           1.1453312     0.3150010    -1.1353695
C           0.3089560    -1.7207061    -1.2257492
H          -0.0793278    -2.1127234    -2.1705200
H          -0.5279229    -1.2426035    -0.7053194
H           1.7619633    -0.6399215    -2.4899254
N           2.5699997    -1.1888562    -0.6029446
C           2.0071194    -2.0580795     0.4290130
H           1.5450763    -1.4954000     1.2628414
H           2.7875992    -2.7000777     0.8515054
C           0.9285839    -2.8216723    -0.3401729
H           0.1978480    -3.3030303     0.3172367
H           1.3961996    -3.5962684    -0.9576169
C           5.6024716     1.6148625     0.3305620
H           6.3826298     2.3358890     0.5576700
C           4.9065713     0.9778572     1.3566005
H           5.1370851     1.2067232     2.3943465
C           3.8970414     0.0560983     1.0712272
H           3.3633638    -0.4158857     1.8893000
C           3.5855360    -0.2741464    -0.2594405
C           4.2915730     0.3786455    -1.2889605
H           4.0645215     0.1335268    -2.3225426
C           5.2821894     1.3103233    -0.9958866
H           5.8160225     1.7947827    -1.8098177
24
339_C10H13N_0-6-19-17 (135,) energy =    -443.6384278
C           1.5762498    -0.8693694    -1.5886887
H           1.3640597     0.2084220    -1.5735626
C           0.3399070    -1.7110730    -1.2100440
H          -0.1896982    -2.0929325    -2.0881391
H          -0.3682232    -1.1004734    -0.6375751
H           1.9298373    -1.1168359    -2.5989917
N           2.6000186    -1.2227540    -0.5823644
C           2.0121535    -2.0800698     0.4469008
H           1.5713584    -1.5004332     1.2788605
H           2.7734901    -2.7436421     0.8726635
C           0.9106687    -2.8212386    -0.3121231
H           0.1636608    -3.2654716     0.3529069
H           1.3484678    -3.6221532    -0.9192732
C           5.5487315     1.6533580     0.3718642
H           6.3064354     2.3948523     0.6082008
C           4.9357432     0.9160559     1.3845322
H           5.2090365     1.0874362     2.4230556
C           3.9558415    -0.0324071     1.0903647
H           3.4920497    -0.5828270     1.9016182
C           3.5845119    -0.2896027    -0.2441991
C           4.2042306     0.4675761    -1.2606888
H           3.9324738     0.2900441    -2.2970113
C           5.1693722     1.4213919    -0.9528701
H           5.6336975     1.9847325    -1.7587441
24
339_C10H13N_0-6-19-17 (150,) energy =    -443.6407794
C           1.6313639    -0.9539679    -1.6409317
H           1.4235537     0.1169447    -1.7695563
C           0.3693839    -1.7482276    -1.2553133
H          -0.1360089    -2.1776715    -2.1256399
H          -0.3457151    -1.0902693    -0.7472804
H           2.0569204    -1.3183670    -2.5876513
N           2.5663189    -1.1799741    -0.5279794
C           1.9698442    -2.0332267     0.4974938
H           1.5159556    -1.4437520     1.3144859
H           2.7273744    -2.6869182     0.9461426
C           0.8934101    -2.8054692    -0.2704251
H           0.1161517    -3.2078823     0.3863190
H           1.3482001    -3.6429345    -0.8125988
C           5.5667417     1.6490324     0.3787001
H           6.3390797     2.3774098     0.6078084
C           5.0267945     0.8442407     1.3824998
H           5.3745865     0.9472630     2.4077301
C           4.0312470    -0.0891287     1.0992169
H           3.6265436    -0.6933208     1.9038370
C           3.5563023    -0.2558625    -0.2192377
C           4.1061169     0.5656448    -1.2280465
H           3.7672757     0.4570275    -2.2535028
C           5.0936215     1.4991159    -0.9268510
H           5.4999473     2.1136596    -1.7267292
24
339_C10H13N_0-6-19-17 (165,) energy =    -443.6418140
C           1.6447406    -0.9909024    -1.6397574
H           1.4061861     0.0534227    -1.8822490
C           0.3865311    -1.8029271    -1.2876640
H          -0.0557951    -2.2875512    -2.1633236
H          -0.3735085    -1.1438940    -0.8513815
H           2.1657076    -1.4163536    -2.5123176
N           2.4725102    -1.0770498    -0.4367311
C           1.9051893    -1.9722497     0.5656897
H           1.4127833    -1.4134973     1.3809126
H           2.6844757    -2.5950711     1.0226137
C           0.8872836    -2.7995000    -0.2297070
H           0.0875717    -3.1981356     0.4017911
H           1.3897066    -3.6456999    -0.7132152
C           5.6274168     1.6011709     0.3748629
H           6.4406916     2.2900229     0.5832481
C           5.1180594     0.7757389     1.3786432
H           5.5331514     0.8213043     2.3828209
C           4.0733818    -0.1090458     1.1226141
H           3.6927665    -0.7286854     1.9274237
C           3.5048363    -0.1981627    -0.1677662
C           4.0276447     0.6402848    -1.1784307
H           3.6251555     0.5890250    -2.1846193
C           5.0693739     1.5217396    -0.9026620
H           5.4509029     2.1517375    -1.7028428
24
339_C10H13N_0-6-19-17 (180,) energy =    -443.6418884
C           1.6275147    -0.9788876    -1.6355077
H           1.3455022     0.0219368    -1.9864894
C           0.4020431    -1.8534175    -1.3365897
H           0.0320657    -2.3730168    -2.2256221
H          -0.4126337    -1.2320520    -0.9460084
H           2.2632799    -1.4320496    -2.4155604
N           2.3189745    -0.9096924    -0.3525907
C           1.8490588    -1.9192737     0.5937049
H           1.3152620    -1.4558679     1.4392480
H           2.6875139    -2.4908140     1.0135108
C           0.9137035    -2.8061847    -0.2446188
H           0.1123936    -3.2512211     0.3529326
H           1.4854293    -3.6241101    -0.6991842
C           5.6859530     1.5325503     0.3444725
H           6.5524137     2.1619504     0.5245488
C           5.1658917     0.7272506     1.3593890
H           5.6273630     0.7277115     2.3441736
C           4.0549633    -0.0824768     1.1384639
H           3.6655655    -0.6840343     1.9528352
C           3.4228147    -0.1112712    -0.1256416