17
346_C7H8N2_0-3-13-12 (-165,) energy =    -381.0284155
C           1.5073657    -1.3381494    -1.1151414
H           2.0160167    -1.2058496    -2.0642529
H           0.4253139    -1.4109411    -1.1837784
C           2.0781045    -0.5926001     0.0614763
H           1.4032072    -0.2374227     0.8351085
C           2.2086423    -2.1128359    -0.0403265
H           1.6224218    -2.7114061     0.6511804
H           3.1937092    -2.5148606    -0.2602783
C           5.6626853     1.5426516    -0.1921760
H           6.6000973     2.0858565    -0.2482416
C           5.0590461     1.2333693     1.0265132
H           5.5166734     1.5280187     1.9704468
N           3.9099271     0.5608716     1.1120205
C           3.3322850     0.2037259    -0.0521028
N           3.8325519     0.4429980    -1.2754505
C           4.9922212     1.1073688    -1.3309653
H           5.3916079     1.2961256    -2.3268382
17
346_C7H8N2_0-3-13-12 (-150,) energy =    -381.0260881
C           1.5881501    -1.4252491    -1.1259043
H           2.1943225    -1.4155838    -2.0262341
H           0.5182038    -1.4871507    -1.3051653
C           2.0613156    -0.5664190     0.0139277
H           1.3144555    -0.1068754     0.6578278
C           2.1512703    -2.0823029     0.1041919
H           1.4768149    -2.5872376     0.7899956
H           3.1385535    -2.5313370     0.0386268
C           5.6661269     1.5515854    -0.1863711
H           6.6047532     2.0939781    -0.2306194
C           5.1348578     1.0906142     1.0179583
H           5.6523072     1.2608169     1.9616241
N           3.9858513     0.4155945     1.0868642
C           3.3360744     0.2098008    -0.0751955
N           3.7615076     0.6043237    -1.2860398
C           4.9226376     1.2687301    -1.3276002
H           5.2620202     1.5833706    -2.3138406
17
346_C7H8N2_0-3-13-12 (-135,) energy =    -381.0245932
C           1.6743555    -1.5215073    -1.1350595
H           2.3720144    -1.6401642    -1.9588299
H           0.6288509    -1.5751612    -1.4258684
C           2.0589904    -0.5565118    -0.0470787
H           1.2548534     0.0042311     0.4280651
C           2.0761699    -2.0433623     0.2225696
H           1.3098310    -2.4516244     0.8755077
H           3.0458829    -2.5231211     0.3219705
C           5.6632254     1.5728556    -0.1988720
H           6.5963963     2.1253998    -0.2340307
C           5.2202121     0.9443769     0.9634237
H           5.8022474     0.9879677     1.8834407
N           4.0766304     0.2562510     1.0190678
C           3.3505232     0.2004556    -0.1124440
N           3.6863002     0.7665587    -1.2838046
C           4.8387367     1.4450258    -1.3131171
H           5.1057374     1.8997498    -2.2664516
17
346_C7H8N2_0-3-13-12 (-120,) energy =    -381.0244774
C           1.6017654    -1.4993852     0.5312704
H           1.5746602    -0.7574454     1.3244256
H           1.3072679    -2.4968119     0.8452514
C           2.6944072    -1.3755401    -0.5009608
H           3.0986499    -2.3138216    -0.8802964
C           1.2748158    -1.0505517    -0.8750752
H           0.7475680    -1.7353625    -1.5333431
H           1.0318757    -0.0040048    -1.0346203
C           5.6486164     1.5776664    -0.1978088
H           6.4202802     2.3366092    -0.1210611
C           4.7801947     1.5154320    -1.2842508
H           4.8484808     2.2325815    -2.1015566
N           3.8249949     0.5854923    -1.3914901
C           3.7314429    -0.3004676    -0.3853171
N           4.5188223    -0.3308845     0.7050415
C           5.4670846     0.6069992     0.7852237
H           6.1013117     0.5774131     1.6706347
17
346_C7H8N2_0-3-13-12 (-105,) energy =    -381.0256163
C           1.5323780    -1.3936381     0.5108848
H           1.4351118    -0.5588669     1.1995822
H           1.2223629    -2.3499731     0.9221773
C           2.7065620    -1.3839466    -0.4458698
H           3.1428149    -2.3613807    -0.6462187
C           1.3221281    -1.1248126    -0.9617473
H           0.8513891    -1.8927997    -1.5691837
H           1.0946182    -0.1083607    -1.2679227
C           5.6549356     1.5759237    -0.1947099
H           6.4278339     2.3345613    -0.1288346
C           4.6787786     1.6007241    -1.1858881
H           4.6587430     2.3889915    -1.9376086
N           3.7240563     0.6678255    -1.2818713
C           3.7359025    -0.3029484    -0.3540929
N           4.6360598    -0.4239850     0.6401378
C           5.5829498     0.5144096     0.7066237
H           6.3093089     0.4108631     1.5121312
17
346_C7H8N2_0-3-13-12 (-90,) energy =    -381.0275436
C           1.4679705    -1.2980044     0.4729103
H           1.3276293    -0.3885316     1.0505605
H           1.1241770    -2.2018193     0.9675398
C           2.7169119    -1.4010236    -0.3895974
H           3.1583838    -2.3942096    -0.4284501
C           1.3752930    -1.1999791    -1.0297960
H           0.9475244    -2.0338252    -1.5794884
H           1.1851618    -0.2241923    -1.4649764
C           5.6513405     1.5712685    -0.1902342
H           6.4207571     2.3342571    -0.1363243
C           4.5827459     1.6619956    -1.0765822
H           4.4827769     2.5094423    -1.7538462
N           3.6333271     0.7229243    -1.1605624
C           3.7427135    -0.3203774    -0.3221356
N           4.7384533    -0.5098003     0.5655082
C           5.6781406     0.4359735     0.6194409
H           6.4821690     0.2768701     1.3373786
17
346_C7H8N2_0-3-13-12 (-75,) energy =    -381.0297416
C           1.4117471    -1.2089299     0.4244202
H           1.2489897    -0.2404933     0.8890573
H           1.0197408    -2.0524146     0.9853626
C           2.7257708    -1.4151889    -0.3236756
H           3.1564861    -2.4075375    -0.2247136
C           1.4340135    -1.2701259    -1.0785416
H           1.0401613    -2.1564733    -1.5682062
H           1.2941784    -0.3430211    -1.6244886
C           5.6463457     1.5684387    -0.1840440
H           6.4106086     2.3373581    -0.1446319
C           4.4958542     1.7104878    -0.9545658
H           4.3231852     2.6063419    -1.5500294
N           3.5519869     0.7660694    -1.0210233
C           3.7510308    -0.3385953    -0.2820336
N           4.8292408    -0.5804241     0.4886129
C           5.7609986     0.3745514     0.5269142
H           6.6319033     0.1731791     1.1499088
17
346_C7H8N2_0-3-13-12 (-60,) energy =    -381.0317119
C           1.3538202    -1.1302056     0.3629097
H           1.1812152    -0.1181439     0.7175103
H           0.9008914    -1.9109608     0.9672417
C           2.7228284    -1.4232739    -0.2470004
H           3.1331990    -2.4051036    -0.0330913
C           1.4932600    -1.3346455    -1.1165499
H           1.1273552    -2.2612468    -1.5500866
H           1.4165795    -0.4609098    -1.7551644
C           5.6428910     1.5596908    -0.1898089
H           6.4057060     2.3307774    -0.1720006
C           4.4210520     1.7442871    -0.8323754
H           4.1890371     2.6782353    -1.3431911
N           3.4774593     0.7998399    -0.8697401
C           3.7519277    -0.3540289    -0.2355261
N           4.8998370    -0.6381670     0.4088950
C           5.8284171     0.3217239     0.4226578
H           6.7558800     0.0862530     0.9436365
17
346_C7H8N2_0-3-13-12 (-45,) energy =    -381.0329705
C           1.3074482    -1.0665925     0.3030466
H           1.1199794    -0.0267378     0.5533971
H           0.7968864    -1.7924754     0.9295958
C           2.7214877    -1.4117336    -0.1509646
H           3.1124453    -2.3749524     0.1595738
C           1.5669471    -1.3966260    -1.1329677
H           1.2354771    -2.3565877    -1.5189117
H           1.5530881    -0.5779207    -1.8452708
C           5.6436271     1.5663505    -0.2050444
H           6.4057496     2.3381788    -0.2172137
C           4.3618578     1.7861922    -0.7061484
H           4.0810207     2.7496797    -1.1303220
N           3.4166038     0.8443775    -0.7012381
C           3.7536667    -0.3484250    -0.1761559
N           4.9590958    -0.6668069     0.3308519
C           5.8869127     0.2949233     0.3090998
H           6.8610996     0.0317915     0.7197653
17
346_C7H8N2_0-3-13-12 (-30,) energy =    -381.0332033
C           1.2581866    -1.0192975     0.2335022
H           1.0550305     0.0364272     0.3830644
H           0.6895310    -1.6969447     0.8642301
C           2.7041586    -1.3912678    -0.0507597
H           3.0722024    -2.3314413     0.3456626
C           1.6419297    -1.4608149    -1.1409535
H           1.3460127    -2.4495695    -1.4802494
H           1.6965999    -0.7018253    -1.9153683
C           5.6491831     1.5596245    -0.2224661
H           6.4173848     2.3242636    -0.2658268
C           4.3268402     1.8197443    -0.5778516
H           4.0190414     2.8093139    -0.9141693
N           3.3722053     0.8889888    -0.5271468
C           3.7437079    -0.3372651    -0.1140485
N           4.9885832    -0.6946847     0.2522255
C           5.9233706     0.2587424     0.1927705
H           6.9291066    -0.0357039     0.4906317
17
346_C7H8N2_0-3-13-12 (-15,) energy =    -381.0323114
C           1.2055576    -0.9819751     0.1532794
H           0.9832840     0.0790530     0.1992545
H           0.5851419    -1.6150372     0.7817275
C           2.6685030    -1.3544742     0.0376392
H           3.0120719    -2.2636799     0.5193134
C           1.7094186    -1.5296847    -1.1416476
H           1.4517829    -2.5463383    -1.4249949
H           1.8283234    -0.8382229    -1.9706695
C           5.6429671     1.5599603    -0.2447374
H           6.4197529     2.3137051    -0.3169112
C           4.2986351     1.8621637    -0.4508187
H           3.9808351     2.8756450    -0.6935485
N           3.3322538     0.9460216    -0.3566421
C           3.7160773    -0.3097170    -0.0629610
N           4.9829917    -0.7079190     0.1595730
C           5.9278437     0.2319074     0.0654846
H           6.9508563    -0.0951646     0.2484337
17
346_C7H8N2_0-3-13-12 (0,) energy =    -381.0305209
C           1.1672787    -0.9506085     0.0702523
H           0.9357928     0.1071004     0.0029331
H           0.4959774    -1.5308946     0.6974319
C           2.6307571    -1.3138909     0.1111267
H           2.9426749    -2.1797052     0.6864789
C           1.7762602    -1.6122227    -1.1252714
H           1.5468253    -2.6538663    -1.3313514
H           1.9558911    -1.0037774    -2.0070063
C           5.6453460     1.5537531    -0.2553334
H           6.4337109     2.2929877    -0.3493160
C           4.2980948     1.9007157    -0.3079325
H           3.9877419     2.9359518    -0.4456634
N           3.3172489     1.0018423    -0.1825739
C           3.6895346    -0.2799166    -0.0225003
N           4.9603156    -0.7213316     0.0511811
C           5.9192229     0.2000825    -0.0657803
H           6.9449644    -0.1620491    -0.0036690
17
346_C7H8N2_0-3-13-12 (15,) energy =    -381.0282807
C           1.1479483    -0.9264482    -0.0282818
H           0.9170657     0.1156094    -0.2233661
H           0.4271471    -1.4424115     0.6002636
C           2.6015760    -1.2669330     0.1610953
H           2.8692525    -2.0678256     0.8444989
C           1.8521643    -1.7077377    -1.0968342
H           1.6396319    -2.7674350    -1.2062559
H           2.0944153    -1.1997976    -2.0262062
C           5.6471320     1.5668452    -0.2556809
H           6.4442305     2.2953167    -0.3603184
C           4.3114359     1.9433976    -0.1551812
H           4.0188041     2.9925866    -0.1764274
N           3.3203891     1.0561359    -0.0136941
C           3.6701186    -0.2405525     0.0017834
N           4.9303654    -0.7114500    -0.0773072
C           5.9000451     0.1962705    -0.2041792
H           6.9171090    -0.1898359    -0.2653532
17
346_C7H8N2_0-3-13-12 (30,) energy =    -381.0261139
C           1.1404696    -0.9037023    -0.1404610
H           0.9299271     0.1066318    -0.4768323
H           0.3666184    -1.3386402     0.4862393
C           2.5723866    -1.2201912     0.1902505
H           2.7733227    -1.9279025     0.9915888
C           1.9211737    -1.8107654    -1.0514358
H           1.7039780    -2.8751699    -1.0489290
H           2.2350284    -1.4222543    -2.0164197
C           5.6519260     1.5783304    -0.2567137
H           6.4571497     2.2971532    -0.3666353
C           4.3425213     1.9708378     0.0018702
H           4.0798216     3.0229649     0.1060945
N           3.3418257     1.0942770     0.1480631
C           3.6542001    -0.2043503     0.0105459
N           4.8872143    -0.6906788    -0.2303331
C           5.8684290     0.2044641    -0.3597658
H           6.8637203    -0.1946554    -0.5529804
17
346_C7H8N2_0-3-13-12 (45,) energy =    -381.0246594
C           1.1362121    -0.8885416    -0.2574173
H           0.9665977     0.0709562    -0.7370824
H           0.3076904    -1.2322967     0.3556836
C           2.5348839    -1.1787044     0.2136646
H           2.6425403    -1.7683473     1.1232444
C           1.9739919    -1.9110714    -0.9842872
H           1.7337381    -2.9644592    -0.8708636
H           2.3691186    -1.6482517    -1.9616621
C           5.6470097     1.5856145    -0.2455748
H           6.4580481     2.2976470    -0.3575812
C           4.3795765     1.9722373     0.1805644
H           4.1581701     3.0117494     0.4199655
N           3.3715435     1.1047290     0.3249035
C           3.6341369    -0.1785657     0.0262074
N           4.8213333    -0.6573482    -0.3890452
C           5.8120501     0.2289737    -0.5191301
H           6.7707890    -0.1645404    -0.8554315
17
346_C7H8N2_0-3-13-12 (60,) energy =    -381.0244322
C           1.1486278    -0.8770583    -0.3842842
H           1.0406554     0.0129923    -0.9978299
H           0.2640646    -1.1278399     0.1943730
C           2.4986067    -1.1329236     0.2367505
H           2.4888332    -1.5840480     1.2287895
C           2.0250099    -1.9954415    -0.9008294
H           1.7450225    -3.0224057    -0.6834306
H           2.5130737    -1.8609854    -1.8617867
C           5.6357752     1.6018933    -0.2367468
H           6.4491021     2.3104769    -0.3541476
C           4.4259355     1.9576861     0.3556342
H           4.2556689     2.9686917     0.7243206
N           3.4148587     1.0964521     0.5024427
C           3.6179581    -0.1542651     0.0509322
N           4.7420779    -0.5997876    -0.5357000
C           5.7368138     0.2834361    -0.6727173
H           6.6446269    -0.0836491    -1.1502775
17
346_C7H8N2_0-3-13-12 (75,) energy =    -381.0255459
C           1.1921468    -0.8740109    -0.5199118
H           1.1690752    -0.0662620    -1.2462779
H           0.2531929    -1.0308249     0.0031894
C           2.4754991    -1.0870024     0.2547617
H           2.3386801    -1.3941125     1.2907007
C           2.0784838    -2.0636008    -0.8122381
H           1.7450522    -3.0504610    -0.5034857
H           2.6605705    -2.0528717    -1.7285582
C           5.6328505     1.6174871    -0.2359382
H           6.4464414     2.3243573    -0.3610336
C           4.4969418     1.9230977     0.5129474
H           4.3885402     2.8918211     0.9997774
N           3.4855766     1.0662380     0.6694277
C           3.6163720    -0.1359662     0.0768746
N           4.6614715    -0.5281145    -0.6695083
C           5.6568748     0.3540321    -0.8180518
H           6.5005530     0.0296762    -1.4261913
17
346_C7H8N2_0-3-13-12 (90,) energy =    -381.0275947
C           1.2367533    -0.8973646    -0.6436373
H           1.3093784    -0.1773911    -1.4540974
H           0.2501787    -0.9716600    -0.1953881
C           2.4388647    -1.0480636     0.2757114
H           2.1895689    -1.2188771     1.3205594
C           2.1090921    -2.1269779    -0.7129445
H           1.7171817    -3.0633928    -0.3257438
H           2.7764063    -2.2293864    -1.5624576
C           5.6193424     1.6169380    -0.2392565
H           6.4358493     2.3186457    -0.3732260
C           4.5687741     1.8656469     0.6438740
H           4.5334225     2.7833903     1.2301525
N           3.5546762     1.0157511     0.8151826
C           3.5983160    -0.1261561     0.1012879
N           4.5549830    -0.4581720    -0.7806983
C           5.5534761     0.4179259    -0.9417768
H           6.3250204     0.1420103    -1.6597309
17
346_C7H8N2_0-3-13-12 (105,) energy =    -381.0298954
C           1.2826421    -0.9433893    -0.7583265
H           1.4433217    -0.3084564    -1.6250483
H           0.2596314    -0.9643764    -0.3939137
C           2.3971425    -1.0015042     0.2819167
H           2.0580076    -1.0624331     1.3121628
C           2.1384927    -2.1734332    -0.6235649
H           1.7032201    -3.0628300    -0.1764007
H           2.8770950    -2.3606230    -1.3958814
C           5.6153928     1.6112651    -0.2286626
H           6.4418839     2.3010156    -0.3629692
C           4.6485762     1.7989166     0.7582239
H           4.6914718     2.6554078     1.4303269
N           3.6239137     0.9617147     0.9336692
C           3.5715968    -0.1053269     0.1129544
N           4.4433076    -0.3736971    -0.8741929
C           5.4530548     0.4876035    -1.0340293
H           6.1551234     0.2634800    -1.8364132
17
346_C7H8N2_0-3-13-12 (120,) energy =    -381.0318406
C           1.3169731    -0.9937335    -0.8499843
H           1.5474208    -0.4392810    -1.7550611
H           0.2685880    -0.9930482    -0.5656823
C           2.3455225    -0.9309708     0.2763505
H           1.9416832    -0.9043194     1.2835128
C           2.1622995    -2.1914085    -0.5331930
H           1.7000005    -3.0376961    -0.0327111
H           2.9601475    -2.4399239    -1.2251930
C           5.6201155     1.6085984    -0.2243761
H           6.4640055     2.2774689    -0.3557782
C           4.7317765     1.7377720     0.8414653
H           4.8568450     2.5258054     1.5833385
N           3.6871931     0.9237122     1.0154985
C           3.5325799    -0.0571805     0.1059537
N           4.3248762    -0.2647359    -0.9611540
C           5.3564331     0.5694779    -1.1136484
H           5.9931560     0.3954000    -1.9804170
17
346_C7H8N2_0-3-13-12 (135,) energy =    -381.0330016
C           1.3459001    -1.0559521    -0.9226592
H           1.6319492    -0.5792837    -1.8554041
H           0.2800878    -1.0597099    -0.7123307
C           2.2864842    -0.8531468     0.2597280
H           1.8283703    -0.7565840     1.2384120
C           2.1885764    -2.1942517    -0.4408233
H           1.7141034    -3.0037372     0.1068404
H           3.0393628    -2.4805149    -1.0508797
C           5.6283596     1.6010382    -0.2084064
H           6.4940066     2.2435932    -0.3287228
C           4.8067477     1.6696409     0.9142235
H           5.0085571     2.3795957     1.7155742
N           3.7368234     0.8854847     1.0773603
C           3.4843187     0.0033799     0.0926388
N           4.2097025    -0.1414184    -1.0320822
C           5.2698698     0.6572119    -1.1691388
H           5.8520825     0.5342994    -2.0818370
17
346_C7H8N2_0-3-13-12 (150,) energy =    -381.0332090
C           1.3735327    -1.1209451    -0.9862722
H           1.7059837    -0.7206030    -1.9388620
H           0.2970422    -1.1428430    -0.8409226
C           2.2264218    -0.7751873     0.2232034
H           1.7207032    -0.6199293     1.1701532
C           2.2105346    -2.1848638    -0.3544575
H           1.7260885    -2.9563251     0.2375153
H           3.1059908    -2.4983990    -0.8822897
C           5.6450801     1.5801589    -0.1938928
H           6.5344072     2.1924891    -0.2978964
C           4.8802406     1.5794451     0.9701062
H           5.1537007     2.1999156     1.8228490
N           3.7823352     0.8310006     1.1144615
C           3.4377393     0.0633460     0.0639950
N           4.1061185    -0.0113434    -1.1022408
C           5.1987904     0.7456568    -1.2171479
H           5.7343790     0.6799755    -2.1636931
17
346_C7H8N2_0-3-13-12 (165,) energy =    -381.0324003
C           1.3999165    -1.1914055    -1.0442622
H           1.7799178    -0.8698582    -2.0084475
H           0.3174309    -1.2369610    -0.9623632
C           2.1606030    -0.7040764     0.1712692
H           1.6052959    -0.4934183     1.0790427
C           2.2208929    -2.1678708    -0.2672906
H           1.7221470    -2.8959235     0.3663360
H           3.1552598    -2.5041286    -0.7069247
C           5.6482872     1.5594737    -0.1874325
H           6.5590856     2.1423469    -0.2734961
C           4.9339816     1.4761323     1.0058193
H           5.2720682     1.9972001     1.9009207
N           3.8119013     0.7614670     1.1287963
C           3.3845897     0.1199779     0.0247497
N           4.0009697     0.1291806    -1.1714118
C           5.1231161     0.8462930    -1.2629481
H           5.6166387     0.8481105    -2.2342978
17
346_C7H8N2_0-3-13-12 (180,) energy =    -381.0307088
C           1.4456270    -1.2606284    -1.0836306
H           1.8817470    -1.0280622    -2.0493309
H           0.3611195    -1.3261188    -1.0695112
C           2.1123092    -0.6365022     0.1182147
H           1.5020249    -0.3608107     0.9722983
C           2.2272035    -2.1383680    -0.1586950
H           1.6978603    -2.8090803     0.5122752
H           3.1920989    -2.5034601    -0.4987168
C           5.6557230     1.5517248    -0.1885404
H           6.5828362     2.1105374    -0.2593993
C           4.9926583     1.3682225     1.0238141
H           5.3914647     1.7819688     1.9494962
N           3.8531913     0.6802534     1.1275373
C           3.3498579     0.1744491    -0.0151804
N           3.9124624     0.2849749    -1.2312972
C           5.0574844     0.9698157    -1.3029811
H           5.5074666     1.0537547    -2.2916456
