23
027_C11H10ClN_2-0-18-16 (-165,) energy =    -940.0919363
C           1.0723789    -0.7146445     0.3038780
H           0.7509139    -1.0121619     1.3192218
C           1.9619229     0.5065233     0.4204252
H           1.5216321     1.4253342     0.7926870
C           3.2769837     0.4945536     0.1644652
H           3.8951025     1.3764572     0.2995948
N           3.9606169    -0.6460539    -0.2568655
H           4.8306564    -0.5148824    -0.7517692
C           3.1990903    -1.7680911    -0.5712612
H           3.7515810    -2.5933123    -1.0101437
C           1.8868266    -1.8514315    -0.3105212
H           1.3700988    -2.7766833    -0.5445673
C          -2.7429887    -0.7315336    -1.8536795
H          -3.6915858    -0.7734189    -2.3813968
C          -2.3941480    -1.7156631    -0.9283303
H          -3.0660845    -2.5441816    -0.7223903
C          -1.1758495    -1.6269187    -0.2652998
H          -0.9158379    -2.3892789     0.4664880
C          -0.2588429    -0.5776459    -0.4720741
C          -0.6299613     0.3755379    -1.4320184
Cl          0.4051384     1.7297561    -1.9072107
C          -1.8579748     0.3112573    -2.1017888
H          -2.1008248     1.0836891    -2.8238739
23
027_C11H10ClN_2-0-18-16 (-150,) energy =    -940.0947093
C           1.0837875    -0.8107591     0.2604269
H           0.7899269    -1.2283282     1.2409669
C           1.9022794     0.4433424     0.4992636
H           1.3977174     1.3119724     0.9108481
C           3.2232192     0.5106870     0.2889944
H           3.7961762     1.4061356     0.5079237
N           3.9684118    -0.5615169    -0.2049589
H           4.8497108    -0.3482173    -0.6488869
C           3.2646867    -1.6690736    -0.6737869
H           3.8649189    -2.4126911    -1.1890712
C           1.9496656    -1.8316481    -0.4708044
H           1.4709355    -2.7372582    -0.8300798
C          -2.7701571    -0.6737670    -1.8069095
H          -3.7307075    -0.6690434    -2.3143878
C          -2.5034517    -1.5891716    -0.7891241
H          -3.2527629    -2.3168668    -0.4902102
C          -1.2667941    -1.5618218    -0.1520621
H          -1.0665217    -2.2691287     0.6503162
C          -0.2559275    -0.6404085    -0.4809609
C          -0.5442703     0.2374911    -1.5375697
Cl          0.6367062     1.3910447    -2.1687089
C          -1.7866295     0.2371605    -2.1799296
H          -1.9645837     0.9485023    -2.9795798
23
027_C11H10ClN_2-0-18-16 (-135,) energy =    -940.0970447
C           1.0969978    -0.9380663     0.2436435
H           0.8150746    -1.4551582     1.1785626
C           1.8387606     0.3367926     0.6033126
H           1.2851581     1.1217116     1.1099876
C           3.1436564     0.5206267     0.3643615
H           3.6602896     1.4303244     0.6538934
N           3.9438943    -0.4440066    -0.2474777
H           4.7960522    -0.1329640    -0.6899935
C           3.3137394    -1.5691527    -0.7756929
H           3.9570076    -2.2306683    -1.3478411
C           2.0199916    -1.8448005    -0.5594038
H           1.6024014    -2.7613017    -0.9647899
C          -2.7720396    -0.6094971    -1.7690351
H          -3.7375153    -0.5469395    -2.2632408
C          -2.5866954    -1.4440576    -0.6677784
H          -3.4061242    -2.0487548    -0.2892701
C          -1.3394073    -1.4971900    -0.0508075
H          -1.1998773    -2.1429369     0.8136512
C          -0.2423253    -0.7342941    -0.4851576
C          -0.4553626     0.0673652    -1.6185999
Cl          0.8395253     1.0124168    -2.3594681
C          -1.7020071     0.1441374    -2.2448740
H          -1.8186029     0.7886421    -3.1098924
23
027_C11H10ClN_2-0-18-16 (-120,) energy =    -940.0982967
C           1.1292720    -1.0713506     0.1860703
H           0.8542883    -1.6703215     1.0728453
C           1.7918384     0.2110552     0.6603717
H           1.1943308     0.9062083     1.2423663
C           3.0735962     0.5096118     0.4090994
H           3.5334276     1.4275809     0.7619105
N           3.9256688    -0.3475783    -0.2844189
H           4.7501287     0.0477934    -0.7110662
C           3.3800379    -1.4950792    -0.8562132
H           4.0697266    -2.0826491    -1.4543437
C           2.1113107    -1.8745490    -0.6511163
H           1.7618947    -2.8036075    -1.0911421
C          -2.7663945    -0.5371868    -1.7279001
H          -3.7397679    -0.4134363    -2.1943393
C          -2.6243026    -1.2899560    -0.5632052
H          -3.4871253    -1.7653556    -0.1049971
C          -1.3640311    -1.4302378     0.0134756
H          -1.2556585    -2.0168902     0.9232368
C          -0.2118892    -0.8392416    -0.5296487
C          -0.3904174    -0.0939401    -1.7068726
Cl          0.9596867     0.6955798    -2.5265240
C          -1.6455002     0.0607160    -2.2996416
H          -1.7322474     0.6483083    -3.2076613
23
027_C11H10ClN_2-0-18-16 (-105,) energy =    -940.0976891
C           1.1504186    -1.1597501     0.1133306
H           0.8873697    -1.8341188     0.9490040
C           1.7277526     0.1187935     0.6995356
H           1.0718242     0.7469109     1.2941955
C           3.0023747     0.4914833     0.5181365
H           3.4040162     1.4066100     0.9424547
N           3.9238580    -0.2871819    -0.1802257
H           4.7440273     0.1714118    -0.5483631
C           3.4557505    -1.4171244    -0.8503948
H           4.1981718    -1.9348963    -1.4497709
C           2.1953659    -1.8566252    -0.7384027
H           1.9061855    -2.7653816    -1.2574138
C          -2.7805157    -0.4734003    -1.6759764
H          -3.7638201    -0.3041216    -2.1058569
C          -2.6394194    -1.1296572    -0.4541292
H          -3.5135379    -1.4789958     0.0883408
C          -1.3656693    -1.3374883     0.0698479
H          -1.2580908    -1.8553947     1.0205558
C          -0.1974105    -0.9164716    -0.5861252
C          -0.3784561    -0.2343550    -1.8005476
Cl          0.9809826     0.4298315    -2.7108631
C          -1.6461949    -0.0235095    -2.3476957
H          -1.7327130     0.5004184    -3.2938964
23
027_C11H10ClN_2-0-18-16 (-90,) energy =    -940.0957141
C           1.1774754    -1.2179844    -0.0025557
H           0.9370878    -1.9721128     0.7709527
C           1.6820541     0.0330303     0.7023832
H           0.9722279     0.6094356     1.2869607
C           2.9590482     0.4353949     0.6372813
H           3.3125581     1.3248396     1.1499522
N           3.9415139    -0.2803840    -0.0462899
H           4.7742184     0.2200571    -0.3207402
C           3.5305877    -1.3380998    -0.8607922
H           4.3148677    -1.7815984    -1.4661454
C           2.2716621    -1.7944629    -0.8783266
H           2.0273616    -2.6400377    -1.5136038
C          -2.8056014    -0.4284352    -1.6273508
H          -3.8034828    -0.2294407    -2.0080155
C          -2.6212544    -0.9627470    -0.3526017
H          -3.4749538    -1.1833434     0.2821360
C          -1.3307876    -1.2167215     0.1035368
H          -1.1906702    -1.6452823     1.0938304
C          -0.1853558    -0.9642090    -0.6710076
C          -0.4068977    -0.3868500    -1.9314908
Cl          0.9197242     0.1026841    -2.9902020
C          -1.6947319    -0.1387025    -2.4148403
H          -1.8126348     0.2931832    -3.4031647
23
027_C11H10ClN_2-0-18-16 (-75,) energy =    -940.0930794
C           1.1874617    -1.2770091    -0.0922340
H           0.9569791    -2.1177589     0.5907532
C           1.6283470    -0.0924142     0.7586202
H           0.8846540     0.3922021     1.3827677
C           2.8885142     0.3645979     0.7705582
H           3.1915462     1.2074893     1.3842824
N           3.9146176    -0.2342820     0.0420626
H           4.7332898     0.3221939    -0.1556992
C           3.5662056    -1.2209121    -0.8829631
H           4.3843813    -1.5785029    -1.5001303
C           2.3272775    -1.7201795    -0.9844357
H           2.1425380    -2.5166946    -1.6972327
C          -2.8228758    -0.3716163    -1.5981580
H          -3.8281690    -0.1427666    -1.9404337
C          -2.5893118    -0.7756120    -0.2833602
H          -3.4110314    -0.8635711     0.4218805
C          -1.2919302    -1.0717975     0.1199185
H          -1.1162012    -1.4013530     1.1421188
C          -0.1824784    -0.9904819    -0.7424892
C          -0.4499820    -0.5419759    -2.0445215
Cl          0.8196075    -0.2721882    -3.2457225
C          -1.7501385    -0.2550094    -2.4754887
H          -1.9038060     0.0708680    -3.4988611
23
027_C11H10ClN_2-0-18-16 (-60,) energy =    -940.0903863
C           1.2085532    -1.4082276    -0.1079301
H           0.9485374    -2.3311036     0.4430243
C           1.6185112    -0.3564426     0.9164552
H           0.9285402    -0.1181256     1.7186370
C           2.7767747     0.3166860     0.8495748
H           3.0420231     1.0837042     1.5706496
N           3.7209254     0.0871805    -0.1464892
H           4.6640903     0.4063453     0.0136478
C           3.5381089    -1.0263062    -0.9643810
H           4.3834242    -1.2784209    -1.5965789
C           2.3965600    -1.7291764    -0.9876079
H           2.3277600    -2.5816348    -1.6539694
C          -2.7491872    -0.2415237    -1.6176373
H          -3.7387995     0.0532395    -1.9550344
C          -2.5049265    -0.5247692    -0.2733307
H          -3.3032220    -0.4556836     0.4604739
C          -1.2277088    -0.9008560     0.1240239
H          -1.0534271    -1.1356358     1.1715315
C          -0.1443741    -1.0220461    -0.7688696
C          -0.4252152    -0.7185719    -2.1088597
Cl          0.7872409    -0.7753754    -3.3976897
C          -1.7069457    -0.3422953    -2.5308603
H          -1.8683486    -0.1266181    -3.5818145
23
027_C11H10ClN_2-0-18-16 (-45,) energy =    -940.0888365
C           1.2170478    -1.5408806    -0.1346878
H           0.9613062    -2.5393939     0.2571236
C           1.6271679    -0.6552521     1.0370944
H           1.0599009    -0.6968088     1.9603033
C           2.6572840     0.2021571     0.9662330
H           2.9150092     0.8707735     1.7817118
N           3.4880137     0.2682119    -0.1476415
H           4.3691063     0.7484086    -0.0436222
C           3.4436904    -0.8120279    -1.0293426
H           4.2950274    -0.9045692    -1.6959414
C           2.4291908    -1.6894804    -1.0325528
H           2.4792862    -2.5350331    -1.7067440
C          -2.6802624    -0.1258189    -1.6338758
H          -3.6497372     0.2274579    -1.9735717
C          -2.3967586    -0.2518598    -0.2743691
H          -3.1461254    -0.0035585     0.4722477
C          -1.1428123    -0.6981037     0.1262846
H          -0.9432430    -0.7865674     1.1892837
C          -0.1160110    -1.0399733    -0.7762512
C          -0.4498994    -0.9287332    -2.1350864
Cl          0.6419059    -1.3772402    -3.4578799
C          -1.7036323    -0.4703646    -2.5596486
H          -1.8986551    -0.3955206    -3.6242262
23
027_C11H10ClN_2-0-18-16 (-30,) energy =    -940.0904875
C           1.2403710    -1.6434907    -0.2035540
H           1.0055759    -2.6935913     0.0268884
C           1.6522364    -0.9253629     1.0753576
H           1.1666186    -1.1821044     2.0115058
C           2.5839685     0.0416887     1.0845921
H           2.8357160     0.6033630     1.9787636
N           3.3253434     0.3502958    -0.0502703
H           4.1401578     0.9329574     0.0685840
C           3.3694604    -0.6249046    -1.0477482
H           4.2111467    -0.5591141    -1.7297338
C           2.4565756    -1.6057440    -1.1175505
H           2.5877155    -2.3812892    -1.8591614
C          -2.6099242    -0.0603961    -1.6540901
H          -3.5665400     0.3274767    -1.9926958
C          -2.2446882     0.0008728    -0.3107639
H          -2.9177655     0.4318996     0.4254047
C          -1.0067870    -0.4928206     0.0904851
H          -0.7296937    -0.4130193     1.1360000
C          -0.0726948    -1.0491414    -0.8022447
C          -0.5043939    -1.1494633    -2.1355802
Cl          0.4292664    -1.9768248    -3.3957483
C          -1.7359812    -0.6445492    -2.5644996
H          -2.0027956    -0.7312037    -3.6125220
23
027_C11H10ClN_2-0-18-16 (-15,) energy =    -940.0945645
C           1.2559114    -1.6392981    -0.2796890
H           1.0714597    -2.7190796    -0.1776246
C           1.6484486    -1.0516994     1.0668871
H           1.1397934    -1.4033001     1.9599125
C           2.5763432    -0.0907143     1.2023443
H           2.8124361     0.3584335     2.1619972
N           3.3236187     0.3668826     0.1238907
H           4.1467392     0.9147777     0.3240167
C           3.3493281    -0.4485906    -1.0081033
H           4.1650275    -0.2603848    -1.6989322
C           2.4490427    -1.4229407    -1.2070457
H           2.5599652    -2.0514302    -2.0795792
C          -2.6049118    -0.0587485    -1.6739085
H          -3.5640511     0.3248625    -2.0103202
C          -2.1459965     0.1917636    -0.3827608
H          -2.7482325     0.7691019     0.3135190
C          -0.9075635    -0.3036428     0.0210281
H          -0.5499683    -0.0810385     1.0209392
C          -0.0647301    -1.0329518    -0.8325434
C          -0.5969632    -1.3286931    -2.0993793
Cl          0.2160556    -2.4317222    -3.2253468
C          -1.8276799    -0.8324533    -2.5321821
H          -2.1754398    -1.0754752    -3.5307622
23
027_C11H10ClN_2-0-18-16 (0,) energy =    -940.0990320
C           1.2731089    -1.6021441    -0.3308702
H           1.1528038    -2.6961717    -0.3218907
C           1.6391419    -1.1147032     1.0596214
H           1.0798262    -1.5040086     1.9058135
C           2.6064599    -0.2151081     1.2988928
H           2.8343900     0.1365862     2.3003408
N           3.3915837     0.3213668     0.2853679
H           4.2514772     0.7776519     0.5507808
C           3.3550573    -0.3220037    -0.9524503
H           4.1406417    -0.0360108    -1.6447006
C           2.4239557    -1.2349734    -1.2642622
H           2.4668675    -1.7003424    -2.2407679
C          -2.6160860    -0.0869279    -1.6768920
H          -3.5830492     0.2805772    -2.0089403
C          -2.0751378     0.3240732    -0.4602654
H          -2.6200900     1.0152222     0.1770488
C          -0.8304397    -0.1562372    -0.0548623
H          -0.4065000     0.1782061     0.8869243
C          -0.0711009    -1.0320052    -0.8432051
C          -0.6732853    -1.4669682    -2.0351753
Cl          0.0897794    -2.7097087    -3.0441756
C          -1.9127716    -0.9953364    -2.4660534
H          -2.3239188    -1.3548261    -3.4035791
23
027_C11H10ClN_2-0-18-16 (15,) energy =    -940.1018341
C           1.2834940    -1.5938243    -0.3880328
H           1.2278124    -2.6906502    -0.4580498
C           1.6209078    -1.1995656     1.0370516
H           1.0347497    -1.6344137     1.8416845
C           2.5975456    -0.3338045     1.3515651
H           2.8171031    -0.0587102     2.3786155
N           3.3958118     0.2766923     0.3899774
H           4.2667712     0.6856681     0.6934147
C           3.3309478    -0.2218562    -0.9121918
H           4.0932678     0.1536181    -1.5875568
C           2.3934972    -1.0955096    -1.3058529
H           2.3961951    -1.4358027    -2.3351985
C          -2.6329494    -0.1332960    -1.6827177
H          -3.6063658     0.2245803    -2.0064060
C          -2.0157673     0.4030009    -0.5534549
H          -2.5055131     1.1867178     0.0181911
C          -0.7660531    -0.0686001    -0.1535622
H          -0.2826119     0.3517835     0.7234031
C          -0.0884890    -1.0715530    -0.8592475
C          -0.7476171    -1.6022173    -1.9784733
Cl         -0.0178400    -2.9209351    -2.9118889
C          -1.9956611    -1.1452117    -2.3994051
H          -2.4605762    -1.5872176    -3.2744618
23
027_C11H10ClN_2-0-18-16 (30,) energy =    -940.1027183
C           1.3086743    -1.5809812    -0.4573137
H           1.3108084    -2.6694647    -0.6120590
C           1.6183698    -1.2914267     0.9988284
H           1.0197830    -1.7875332     1.7571479
C           2.5827120    -0.4432122     1.3894855
H           2.7897094    -0.2438485     2.4364975
N           3.3803905     0.2546177     0.4863301
H           4.2517625     0.6337002     0.8254608
C           3.3119241    -0.1113391    -0.8592245
H           4.0572975     0.3500045    -1.4994654
C           2.3862044    -0.9576586    -1.3323781
H           2.3749527    -1.1872514    -2.3928993
C          -2.6332573    -0.1424450    -1.6771677
H          -3.6119175     0.2164299    -1.9835100
C          -1.9276478     0.4976782    -0.6580958
H          -2.3513171     1.3656532    -0.1601732
C          -0.6745199     0.0222109    -0.2768937
H          -0.1231781     0.5159333     0.5182824
C          -0.0864608    -1.0946997    -0.8865579
C          -0.8201123    -1.7101208    -1.9106417
Cl         -0.1672837    -3.1196787    -2.7648201
C          -2.0762958    -1.2529183    -2.3090096
H          -2.6058847    -1.7665897    -3.1045339
23
027_C11H10ClN_2-0-18-16 (45,) energy =    -940.1025209
C           1.3458421    -1.5574102    -0.5554678
H           1.4041408    -2.6238676    -0.8099632
C           1.6181910    -1.3924599     0.9284498
H           1.0139492    -1.9670932     1.6240170
C           2.5509981    -0.5594080     1.4149790
H           2.7289991    -0.4490026     2.4803060
N           3.3455525     0.2427050     0.5970439
H           4.2082842     0.5958928     0.9834433
C           3.2979692     0.0156382    -0.7795996
H           4.0310826     0.5657909    -1.3612857
C           2.4010192    -0.8026509    -1.3486411
H           2.4006455    -0.9144135    -2.4284462
C          -2.6376592    -0.1452461    -1.6592500
H          -3.6262412     0.2118213    -1.9343097
C          -1.8316830     0.5903649    -0.7886895
H          -2.1859955     1.5319437    -0.3781011
C          -0.5687825     0.1145760    -0.4462708
H           0.0595961     0.6812241     0.2350979
C          -0.0678725    -1.0967673    -0.9465431
C          -0.8985648    -1.8048184    -1.8253714
Cl         -0.3669021    -3.3343092    -2.5470497
C          -2.1690949    -1.3483436    -2.1818010
H          -2.7770203    -1.9353689    -2.8621936
23
027_C11H10ClN_2-0-18-16 (60,) energy =    -940.1023457
C           1.3919189    -1.5317139    -0.6662753
H           1.4985783    -2.5617477    -1.0288134
C           1.6263083    -1.5089603     0.8347943
H           1.0284027    -2.1723257     1.4523113
C           2.5104904    -0.6928062     1.4275609
H           2.6547083    -0.6798748     2.5035284
N           3.2926010     0.2172970     0.7155417
H           4.1333695     0.5578913     1.1577809
C           3.2845251     0.1290120    -0.6770875
H           4.0096530     0.7599326    -1.1818435
C           2.4300505    -0.6567898    -1.3490265
H           2.4581631    -0.6552702    -2.4344035
C          -2.6424907    -0.1606918    -1.6242138
H          -3.6443378     0.1879459    -1.8591222
C          -1.7441926     0.6619556    -0.9413636
H          -2.0396306     1.6624441    -0.6374363
C          -0.4656387     0.1961815    -0.6499812
H           0.2360421     0.8329269    -0.1184264
C          -0.0364365    -1.0879394    -1.0206986
C          -0.9617146    -1.8867565    -1.7048355
Cl         -0.5445553    -3.5275463    -2.2310998
C          -2.2503481    -1.4403636    -2.0079251
H          -2.9317148    -2.0963324    -2.5394330
23
027_C11H10ClN_2-0-18-16 (75,) energy =    -940.1024817
C           1.4236176    -1.4781492    -0.7721170
H           1.5639662    -2.4605051    -1.2412069
C           1.6334605    -1.6109451     0.7281311
H           1.0415356    -2.3498404     1.2594499
C           2.4816966    -0.8378494     1.4215393
H           2.6032865    -0.9307865     2.4962892
N           3.2537189     0.1598984     0.8240206
H           4.0770088     0.4723301     1.3170206
C           3.2739775     0.2167217    -0.5690269
H           3.9960803     0.9093566    -0.9904696
C           2.4485231    -0.5108260    -1.3369873
H           2.4979084    -0.3947189    -2.4155181
C          -2.6626363    -0.1701071    -1.5912301
H          -3.6786246     0.1596697    -1.7898561
C          -1.7043656     0.7250818    -1.1124140
H          -1.9670679     1.7637596    -0.9312702
C          -0.4072600     0.2834963    -0.8663784
H           0.3427581     0.9779559    -0.4984108
C          -0.0178462    -1.0464105    -1.0873364
C          -1.0061516    -1.9201893    -1.5597640
Cl         -0.6465810    -3.6309308    -1.8547219
C          -2.3130258    -1.4994815    -1.8152244
H          -3.0418508    -2.2131071    -2.1848868
23
027_C11H10ClN_2-0-18-16 (90,) energy =    -940.1027186
C           1.1063266    -0.1906541     0.3335145
H           0.8290491     0.3917749     1.2234027
C           2.1482149     0.5854104    -0.4581694
H           1.9145602     1.6072730    -0.7392954
C           3.3127224     0.0517006    -0.8533879
H           4.0351888     0.6085808    -1.4418401
N           3.6789791    -1.2621632    -0.5557116
H           4.6584918    -1.4988627    -0.6065109
C           2.8884906    -1.9663831     0.3493284
H           3.2976813    -2.9177331     0.6753981
C           1.6999061    -1.5137598     0.7785593
H           1.1253021    -2.1250600     1.4681755
C          -2.5207637    -0.6797561    -2.0530901
H          -3.4210256    -0.7993856    -2.6494393
C          -1.5062879    -1.6366318    -2.0963248
H          -1.6066590    -2.5129719    -2.7309440
C          -0.3599331    -1.4678152    -1.3227039
H           0.4305133    -2.2124747    -1.3501488
C          -0.1848446    -0.3566183    -0.4859466
C          -1.2194397     0.5893285    -0.4731307
Cl         -1.0965934     2.0476853     0.5272667
C          -2.3768848     0.4413536    -1.2378834
H          -3.1515034     1.1995145    -1.1895041
23
027_C11H10ClN_2-0-18-16 (105,) energy =    -940.1021634
C           1.1023377    -0.2645121     0.3470592
H           0.7780344     0.2309085     1.2754637
C           2.1346636     0.6208074    -0.3363954
H           1.8829925     1.6612621    -0.5086177
C           3.3152060     0.1559826    -0.7693638
H           4.0331350     0.7858516    -1.2852520
N           3.7099186    -1.1726055    -0.5981652
H           4.6935219    -1.3830283    -0.6761383
C           2.9420661    -1.9729445     0.2424433
H           3.3844586    -2.9305866     0.4993911
C           1.7385792    -1.5936064     0.7009041
H           1.1886414    -2.2704824     1.3481187
C          -2.5220429    -0.6811199    -2.0653144
H          -3.4245458    -0.7822226    -2.6616771
C          -1.5978393    -1.7225238    -1.9901420
H          -1.7724483    -2.6497653    -2.5291877
C          -0.4454698    -1.5749558    -1.2194879
H           0.2772438    -2.3837912    -1.1617274
C          -0.1711627    -0.3986543    -0.5092854
C          -1.1278903     0.6233525    -0.5977547
Cl         -0.9076573     2.1410790     0.2914125
C          -2.2867098     0.5001325    -1.3632488
H          -2.9947701     1.3214672    -1.3992593
23
027_C11H10ClN_2-0-18-16 (120,) energy =    -940.0998084
C           1.0981925    -0.3186929     0.3489675
H           0.7215870     0.0901265     1.3016763
C           2.1317649     0.6543332    -0.2020433
H           1.8826951     1.7066079    -0.2489132
C           3.3193440     0.2468350    -0.6727855
H           4.0424579     0.9341253    -1.1007082
N           3.7213278    -1.0905933    -0.6416961
H           4.7049834    -1.2849825    -0.7531092
C           2.9757351    -1.9696195     0.1372392
H           3.4431900    -2.9306351     0.3287383
C           1.7672031    -1.6489488     0.6264398
H           1.2432994    -2.3742168     1.2418242
C          -2.5320162    -0.6948720    -2.0765090
H          -3.4378794    -0.7883535    -2.6689656
C          -1.6917851    -1.7890959    -1.8795283
H          -1.9367286    -2.7544249    -2.3142385
C          -0.5322828    -1.6464581    -1.1182944
H           0.1276913    -2.4972877    -0.9776961
C          -0.1557575    -0.4225453    -0.5482337
C          -1.0497044     0.6448984    -0.7290390
Cl         -0.7768083     2.2073799     0.0633819
C          -2.2113648     0.5290650    -1.4915491
H          -2.8613099     1.3900058    -1.6080857
23
027_C11H10ClN_2-0-18-16 (135,) energy =    -940.0955268
C           1.0816208    -0.3579928     0.3675139
H           0.6578725    -0.0489774     1.3385782
C           2.1167040     0.6841807    -0.0317659
H           1.8920856     1.7329344     0.0986170
C           3.2934030     0.3376631    -0.5748081
H           4.0229750     1.0718628    -0.9019849
N           3.6812736    -0.9956727    -0.7298196
H           4.6563682    -1.1770269    -0.9145018
C           2.9789677    -1.9507265    -0.0017833
H           3.4722290    -2.9121306     0.1034684
C           1.7860985    -1.6867618     0.5555023
H           1.3080672    -2.4553811     1.1547571
C          -2.5459796    -0.7063964    -2.0892441
H          -3.4505490    -0.7989898    -2.6837459
C          -1.7975950    -1.8293893    -1.7440167
H          -2.1139197    -2.8199934    -2.0593469
C          -0.6366163    -1.6826477    -0.9869578
H          -0.0470535    -2.5611709    -0.7450221
C          -0.1553158    -0.4324312    -0.5681598
C          -0.9746924     0.6669013    -0.8766230
Cl         -0.6447337     2.2892114    -0.2403030
C          -2.1342793     0.5474636    -1.6439780
H          -2.7157297     1.4357497    -1.8676555
23
027_C11H10ClN_2-0-18-16 (150,) energy =    -940.0911669
C           1.0779267    -0.4367903     0.4266904
H           0.6307770    -0.2629476     1.4197248
C           2.1011190     0.6607958     0.1876346
H           1.8992136     1.6643850     0.5324138
C           3.2541290     0.4153573    -0.4535158
H           3.9797971     1.1920311    -0.6733854
N           3.6247258    -0.8761715    -0.8357587
H           4.5803915    -1.0184837    -1.1255140
C           2.9871831    -1.9301549    -0.1890607
H           3.5088930    -2.8817982    -0.2177313
C           1.8262733    -1.7584292     0.4641409
H           1.4140250    -2.5919303     1.0231878
C          -2.5300209    -0.7120718    -2.0887044
H          -3.4274930    -0.7959159    -2.6950783
C          -1.9039688    -1.8442319    -1.5717929
H          -2.3092817    -2.8343520    -1.7619764
C          -0.7489086    -1.7059415    -0.8069902
H          -0.2597812    -2.6001341    -0.4363283
C          -0.1519884    -0.4626241    -0.5324572
C          -0.8461972     0.6570013    -1.0215519
Cl         -0.3746287     2.3250974    -0.6469617
C          -1.9986334     0.5415839    -1.8044735
H          -2.4775168     1.4434263    -2.1711363
23
027_C11H10ClN_2-0-18-16 (165,) energy =    -940.0889504
C           1.0751232    -0.5156145     0.4515761
H           0.6416039    -0.4945236     1.4649908
C           2.0655184     0.6280845     0.3469310
H           1.8227231     1.5775500     0.8054739
C           3.2342700     0.5058578    -0.3002711
H           3.9302211     1.3313162    -0.4100459
N           3.6536692    -0.7087942    -0.8445309
H           4.6188304    -0.7840349    -1.1277941
C           3.0328498    -1.8575944    -0.3653302
H           3.5720136    -2.7851956    -0.5308119
C           1.8641101    -1.8097474     0.2934793
H           1.4712978    -2.7308773     0.7097605
C          -2.5395638    -0.7154487    -2.0671930
H          -3.4344911    -0.7913600    -2.6782977
C          -2.0447314    -1.8203087    -1.3757607
H          -2.5517324    -2.7797759    -1.4310785
C          -0.8909869    -1.6915902    -0.6105370
H          -0.5185594    -2.5670097    -0.0893158
C          -0.1717889    -0.4864381    -0.4890957
C          -0.7220041     0.6110101    -1.1704848
Cl         -0.0565717     2.2526442    -1.0894464
C          -1.8753142     0.4998550    -1.9568582
H          -2.2438854     1.3813023    -2.4708135
23
027_C11H10ClN_2-0-18-16 (180,) energy =    -940.0895885
C           1.0803772    -0.5866828     0.4023350
H           0.6850193    -0.7236088     1.4234829
C           2.0306924     0.5926882     0.4193037
H           1.7021068     1.5103871     0.8935087
C           3.2618317     0.5600324    -0.1110903
H           3.9205005     1.4222578    -0.0924617
N           3.7838094    -0.5748474    -0.7279246
H           4.7807981    -0.6138488    -0.8760710
C           3.1110894    -1.7738993    -0.5188501
H           3.6486139    -2.6676679    -0.8199777
C           1.8856163    -1.8275099     0.0240907
H           1.4358980    -2.8040227     0.1672933
C          -2.5948979    -0.7183916    -2.0140771
H          -3.5035625    -0.7888193    -2.6051802
C          -2.2013178    -1.7618544    -1.1758781
H          -2.8010302    -2.6644100    -1.0964713
C          -1.0311025    -1.6401023    -0.4368730
H          -0.7455645    -2.4565967     0.2210668
C          -0.2021911    -0.5007656    -0.4786594
C          -0.6356946     0.5305735    -1.3249655
Cl          0.2231816     2.0672492    -1.5230102
C          -1.8106199     0.4261477    -2.0811940
H          -2.0957087     1.2562352    -2.7189244
