23
352_C11H12_0-6-18-16 (-165,) energy =    -426.3873863
C           1.7150049    -1.7160693     0.5144178
H           1.3430071    -1.2062765     1.4157704
H           2.5170610    -2.3846159     0.8492922
C           0.5943819    -2.4944711    -0.2178380
H          -0.2277680    -2.7769783     0.4470038
H           1.0076396    -3.4205227    -0.6332728
C           2.1811995    -0.6895181    -0.5107107
C           1.3132527    -0.6337855    -1.5378376
H           1.4015070     0.0307463    -2.3926700
C           0.1436959    -1.5706344    -1.3767632
H          -0.0895427    -2.1278136    -2.2933741
H          -0.7689030    -1.0084996    -1.1216036
C           5.6938690     1.7298801     0.0692568
H           6.5807125     2.3402718     0.2166804
C           4.7642831     2.0623407    -0.9206933
H           4.9237046     2.9378605    -1.5450055
C           3.6259421     1.2847130    -1.1061562
H           2.9060996     1.5722822    -1.8666688
C           3.3835257     0.1428638    -0.3166284
C           4.3241550    -0.1683991     0.6815130
H           4.1672029    -1.0340073     1.3171978
C           5.4651526     0.6121903     0.8704191
H           6.1754560     0.3438446     1.6482917
23
352_C11H12_0-6-18-16 (-150,) energy =    -426.3869870
C           1.6327683    -1.6164699     0.5743132
H           1.2090436    -1.0099188     1.3886156
H           2.3895315    -2.2611025     1.0370936
C           0.5488892    -2.4419407    -0.1625811
H          -0.3281213    -2.6394996     0.4616118
H           0.9658078    -3.4133340    -0.4516767
C           2.1973931    -0.7055013    -0.5080320
C           1.4111272    -0.7323808    -1.5988100
H           1.5893308    -0.1568040    -2.5031448
C           0.2102102    -1.6299970    -1.4389713
H           0.0356044    -2.2728513    -2.3113631
H          -0.7062186    -1.0316343    -1.3130084
C           5.6952572     1.7332117     0.0588739
H           6.5787356     2.3496096     0.2017912
C           4.6845533     2.1409573    -0.8155463
H           4.7758004     3.0818465    -1.3523008
C           3.5491876     1.3546615    -0.9922084
H           2.7567822     1.6961666    -1.6520674
C           3.3966787     0.1317659    -0.3112577
C           4.4161672    -0.2544980     0.5768531
H           4.3261654    -1.1876103     1.1248960
C           5.5533213     0.5330038     0.7557890
H           6.3296841     0.2068258     1.4431890
23
352_C11H12_0-6-18-16 (-135,) energy =    -426.3861599
C           1.5501282    -1.5168773     0.6062308
H           1.0832537    -0.8173406     1.3157436
H           2.2584893    -2.1155563     1.1919201
C           0.5018193    -2.3952786    -0.1203052
H          -0.4167690    -2.5248549     0.4604532
H           0.9204998    -3.3934524    -0.2922491
C           2.2086559    -0.7344051    -0.5219956
C           1.4892803    -0.8414131    -1.6515160
H           1.7392899    -0.3489931    -2.5877281
C           0.2595133    -1.6996745    -1.4852955
H           0.1226646    -2.4182006    -2.3036168
H          -0.6486473    -1.0762313    -1.4711018
C           5.6797875     1.7318911     0.0691901
H           6.5555644     2.3571452     0.2210658
C           4.6075401     2.1962681    -0.6952937
H           4.6422840     3.1891887    -1.1364630
C           3.4815684     1.3964381    -0.8834317
H           2.6395850     1.7715792    -1.4585576
C           3.4059562     0.1082946    -0.3245462
C           4.4862650    -0.3367256     0.4573492
H           4.4497920    -1.3248115     0.9080818
C           5.6131498     0.4621395     0.6459932
H           6.4407487     0.0923806     1.2460055
23
352_C11H12_0-6-18-16 (-120,) energy =    -426.3847403
C           1.4785024    -1.4018762     0.6208619
H           0.9850667    -0.6224548     1.2209241
H           2.1394244    -1.9428307     1.3098105
C           0.4585521    -2.3339885    -0.0780165
H          -0.4955346    -2.3940284     0.4549315
H           0.8686338    -3.3493333    -0.1252673
C           2.2224273    -0.7543281    -0.5392207
C           1.5679273    -0.9548707    -1.6931320
H           1.8795048    -0.5523900    -2.6536514
C           0.3119620    -1.7742955    -1.5176760
H           0.2076657    -2.5689883    -2.2674154
H          -0.5813117    -1.1379463    -1.6199695
C           5.6719866     1.7329012     0.0841711
H           6.5416230     2.3638090     0.2478551
C           4.5444017     2.2433846    -0.5606236
H           4.5299713     3.2769596    -0.8971108
C           3.4270537     1.4335006    -0.7664385
H           2.5440508     1.8360572    -1.2552891
C           3.4198861     0.0942489    -0.3438815
C           4.5549132    -0.4001622     0.3211942
H           4.5656731    -1.4310220     0.6663654
C           5.6725341     0.4075066     0.5252648
H           6.5456708     0.0022365     1.0302683
23
352_C11H12_0-6-18-16 (-105,) energy =    -426.3831732
C           1.3958461    -1.2741015     0.6262235
H           0.8742578    -0.4325291     1.1070635
H           2.0065498    -1.7407912     1.4096360
C           0.4125774    -2.2691290    -0.0381099
H          -0.5771333    -2.2639625     0.4292286
H           0.8097457    -3.2865118     0.0540760
C           2.2249357    -0.7601201    -0.5430263
C           1.6500395    -1.0792115    -1.7107104
H           2.0301060    -0.7790428    -2.6838425
C           0.3741749    -1.8689261    -1.5368097
H           0.3132137    -2.7401157    -2.2015469
H          -0.5013764    -1.2431748    -1.7708728
C           5.6731860     1.7270492     0.1028986
H           6.5424408     2.3565501     0.2740993
C           4.4937343     2.2781610    -0.3996072
H           4.4397635     3.3414697    -0.6190559
C           3.3780203     1.4683797    -0.6184005
H           2.4583678     1.8992197    -1.0052687
C           3.4248280     0.0921015    -0.3484296
C           4.6127860    -0.4464399     0.1722993
H           4.6623051    -1.5093970     0.3956148
C           5.7289557     0.3609339     0.3883722
H           6.6436841    -0.0766660     0.7800877
23
352_C11H12_0-6-18-16 (-90,) energy =    -426.3822833
C           1.2875906    -1.1310795     0.6030464
H           0.7290922    -0.2489981     0.9524279
H           1.8383338    -1.5067832     1.4746897
C           0.3590462    -2.2002341    -0.0255390
H          -0.6688012    -2.1405205     0.3459256
H           0.7360864    -3.1986443     0.2237329
C           2.2100476    -0.7423889    -0.5443484
C           1.7475764    -1.2100525    -1.7107660
H           2.2154333    -1.0267517    -2.6745505
C           0.4584111    -1.9830899    -1.5588871
H           0.4560876    -2.9282465    -2.1167966
H          -0.3904193    -1.3975030    -1.9451371
C           5.6832928     1.7124565     0.1017178
H           6.5598313     2.3329048     0.2687544
C           4.4583469     2.2998472    -0.2192038
H           4.3776275     3.3805535    -0.3045797
C           3.3335406     1.5025424    -0.4350608
H           2.3820746     1.9626330    -0.6892648
C           3.4143314     0.1051077    -0.3376090
C           4.6503553    -0.4725790    -0.0091879
H           4.7263241    -1.5541544     0.0690635
C           5.7761893     0.3232551     0.2051738
H           6.7270272    -0.1425856     0.4513722
23
352_C11H12_0-6-18-16 (-75,) energy =    -426.3827868
C           1.1717678    -0.9832100     0.5635931
H           0.5777067    -0.0774761     0.7617053
H           1.6454997    -1.2505754     1.5162784
C           0.3063376    -2.1298523    -0.0177183
H          -0.7522195    -2.0377690     0.2450544
H           0.6575581    -3.0868202     0.3847467
C           2.1950042    -0.7181646    -0.5326074
C           1.8530642    -1.3398778    -1.6688406
H           2.4148282    -1.2727793    -2.5968625
C           0.5520972    -2.0985139    -1.5494653
H           0.6014547    -3.1045196    -1.9857117
H          -0.2542072    -1.5724694    -2.0838726
C           5.6987336     1.6991176     0.0866830
H           6.5850047     2.3092131     0.2399539
C           4.4437023     2.2998864    -0.0333858
H           4.3508161     3.3816502     0.0201765
C           3.3068779     1.5163187    -0.2306538
H           2.3336464     1.9901899    -0.3320231
C           3.4025145     0.1176820    -0.3088223
C           4.6698249    -0.4730648    -0.1929114
H           4.7562925    -1.5543448    -0.2587927
C           5.8080379     0.3103090     0.0049814
H           6.7812236    -0.1660047     0.0930487
23
352_C11H12_0-6-18-16 (-60,) energy =    -426.3843807
C           1.0742974    -0.8568422     0.5015455
H           0.4699151     0.0624528     0.5476579
H           1.4629145    -1.0176748     1.5144942
C           0.2497716    -2.0602952    -0.0215411
H          -0.8260536    -1.9400967     0.1405011
H           0.5580161    -2.9674229     0.5106184
C           2.1906512    -0.7170459    -0.5248701
C           1.9391326    -1.4630005    -1.6107454
H           2.5776829    -1.5010302    -2.4894978
C           0.6221364    -2.1961654    -1.5215006
H           0.6927659    -3.2436137    -1.8421633
H          -0.1296759    -1.7266057    -2.1749148
C           5.6997227     1.6910353     0.0756918
H           6.5877842     2.3006902     0.2198077
C           4.4307429     2.2714322     0.1383289
H           4.3284306     3.3377587     0.3232324
C           3.2914984     1.4888892    -0.0444382
H           2.3079840     1.9503882    -0.0035503
C           3.3968534     0.1092299    -0.2892404
C           4.6786901    -0.4593546    -0.3577618
H           4.7720272    -1.5252763    -0.5469183
C           5.8192695     0.3231534    -0.1740107
H           6.8024878    -0.1377703    -0.2246825
23
352_C11H12_0-6-18-16 (-45,) energy =    -426.3861864
C           1.0108113    -0.7440033     0.4167389
H           0.4152033     0.1751218     0.3030751
H           1.3131897    -0.7861973     1.4700450
C           0.2124449    -1.9940385    -0.0288625
H          -0.8705202    -1.8615676     0.0596101
H           0.4893580    -2.8433607     0.6061909
C           2.2054964    -0.7318828    -0.5279832
C           2.0078907    -1.5766444    -1.5533234
H           2.6991046    -1.7100353    -2.3813800
C           0.6712960    -2.2743685    -1.4831740
H           0.7345188    -3.3476055    -1.7047481
H          -0.0278470    -1.8503721    -2.2212011
C           5.7008826     1.6909314     0.0748514
H           6.5848275     2.3061386     0.2202663
C           4.4289353     2.2269026     0.2865887
H           4.3187985     3.2649429     0.5899950
C           3.2948909     1.4366102     0.1048756
H           2.3093735     1.8663472     0.2645300
C           3.4072736     0.0924920    -0.2912432
C           4.6940165    -0.4318672    -0.5023156
H           4.7963159    -1.4733529    -0.7946588
C           5.8284439     0.3578438    -0.3205630
H           6.8143768    -0.0707677    -0.4817822
23
352_C11H12_0-6-18-16 (-30,) energy =    -426.3874759
C           0.9711339    -0.6483414     0.3329856
H           0.4090890     0.2654746     0.0857414
H           1.2004926    -0.5897284     1.4039424
C           0.1693498    -1.9194807    -0.0385357
H          -0.9131518    -1.7576685    -0.0286822
H           0.3872267    -2.7097487     0.6889582
C           2.2245333    -0.7546256    -0.5257526
C           2.0588596    -1.6821185    -1.4850343
H           2.7858161    -1.9034259    -2.2618760
C           0.7044110    -2.3439009    -1.4300067
H           0.7539875    -3.4342027    -1.5481499
H           0.0595029    -1.9775478    -2.2445388
C           5.6974254     1.6994173     0.0827114
H           6.5749030     2.3226086     0.2329188
C           4.4307353     2.1721883     0.4284164
H           4.3163046     3.1699612     0.8443807
C           3.3058102     1.3694822     0.2413323
H           2.3251771     1.7526099     0.5098397
C           3.4201219     0.0768095    -0.2998183
C           4.7051570    -0.3868335    -0.6366391
H           4.8187639    -1.3937312    -1.0286795
C           5.8288805     0.4143079    -0.4498785
H           6.8120350     0.0314331    -0.7117133
23
352_C11H12_0-6-18-16 (-15,) energy =    -426.3880086
C           0.9380064    -0.5719897     0.2374170
H           0.4253523     0.3290160    -0.1329645
H           1.0919261    -0.4206418     1.3128857
C           0.1239168    -1.8521076    -0.0678880
H          -0.9516431    -1.6641097    -0.1438691
H           0.2717282    -2.5761919     0.7414675
C           2.2424731    -0.7864058    -0.5195397
C           2.1059931    -1.7921658    -1.4031357
H           2.8668391    -2.1028935    -2.1137613
C           0.7337969    -2.4163333    -1.3754698
H           0.7603874    -3.5137710    -1.3899663
H           0.1529576    -2.1135581    -2.2613676
C           5.6913481     1.7062720     0.0902779
H           6.5616549     2.3385112     0.2441133
C           4.4396959     2.1032231     0.5599003
H           4.3276845     3.0509113     1.0804642
C           3.3246353     1.2874876     0.3661667
H           2.3571809     1.6149434     0.7351317
C           3.4307147     0.0582010    -0.3084142
C           4.7046008    -0.3305176    -0.7664426
H           4.8232739    -1.2889566    -1.2636548
C           5.8173690     0.4820206    -0.5731032
H           6.7896908     0.1561099    -0.9338171
23
352_C11H12_0-6-18-16 (0,) energy =    -426.3877593
C           0.9060064    -0.4949437     0.1383056
H           0.4500903     0.3846294    -0.3409613
H           0.9848680    -0.2585469     1.2064355
C           0.0770918    -1.7782734    -0.1086739
H          -0.9822012    -1.5712091    -0.2899274
H           0.1356611    -2.4226529     0.7758751
C           2.2543752    -0.8023939    -0.5017047
C           2.1545794    -1.8920364    -1.2858546
H           2.9562010    -2.2996452    -1.8951008
C           0.7683459    -2.4835787    -1.3014163
H           0.7658157    -3.5771786    -1.2057927
H           0.2649736    -2.2598078    -2.2557002
C           5.6940093     1.7126938     0.0982072
H           6.5613052     2.3488309     0.2527472
C           4.4729710     2.0288066     0.6914520
H           4.3806953     2.9160254     1.3127066
C           3.3611916     1.2091073     0.4934318
H           2.4195252     1.4760738     0.9626238
C           3.4377543     0.0547975    -0.3064569
C           4.6819615    -0.2486883    -0.8947303
H           4.7824926    -1.1366081    -1.5117192
C           5.7912736     0.5662915    -0.6967195
H           6.7380835     0.3063333    -1.1633161
23
352_C11H12_0-6-18-16 (15,) energy =    -426.3873791
C           0.8854719    -0.4164586     0.0303794
H           0.4905024     0.4331646    -0.5464086
H           0.8855211    -0.1001640     1.0803855
C           0.0456622    -1.7014521    -0.1755783
H          -0.9814917    -1.4884529    -0.4875061
H          -0.0114009    -2.2538093     0.7691192
C           2.2711618    -0.7949957    -0.4776098
C           2.2177569    -1.9623291    -1.1452536
H           3.0648677    -2.4457581    -1.6236411
C           0.8286301    -2.5425623    -1.2148682
H           0.8010334    -3.6174016    -0.9934240
H           0.4139148    -2.4303005    -2.2293917
C           5.7191251     1.7163649     0.0992540
H           6.5900305     2.3491724     0.2471943
C           4.5491621     1.9450103     0.8220531
H           4.5023809     2.7587852     1.5412279
C           3.4313609     1.1327027     0.6283616
H           2.5320574     1.3285767     1.2036147
C           3.4524223     0.0687427    -0.2911377
C           4.6412801    -0.1397586    -1.0183860
H           4.6849270    -0.9366456    -1.7548101
C           5.7573058     0.6676789    -0.8245315
H           6.6596167     0.4837543    -1.4022215
23
352_C11H12_0-6-18-16 (30,) energy =    -426.3869843
C           0.8539252    -0.3569705    -0.0996377
H           0.5142535     0.4239567    -0.7963225
H           0.7742840     0.0757162     0.9047849
C           0.0227997    -1.6570555    -0.2331046
H          -0.9811182    -1.4775363    -0.6302397
H          -0.0969539    -2.1149703     0.7553457
C           2.2691729    -0.7900676    -0.4599405
C           2.2556690    -2.0141804    -1.0169001
H           3.1365696    -2.5403672    -1.3746042
C           0.8687765    -2.5943346    -1.1324345
H           0.8145019    -3.6435130    -0.8145217
H           0.5270067    -2.5748637    -2.1796341
C           5.7298115     1.7025459     0.1006586
H           6.6062536     2.3285738     0.2449515
C           4.6184861     1.8433440     0.9321734
H           4.6271517     2.5782951     1.7330582
C           3.4917338     1.0432869     0.7430686
H           2.6391245     1.1626248     1.4048860
C           3.4482681     0.0788165    -0.2792422
C           4.5755026    -0.0419325    -1.1142017
H           4.5538048    -0.7565790    -1.9319730
C           5.7015232     0.7549607    -0.9258483
H           6.5559863     0.6439382    -1.5886628
23
352_C11H12_0-6-18-16 (45,) energy =    -426.3861661
C           0.8382217    -0.3148013    -0.2300354
H           0.5649210     0.3903099    -1.0293351
H           0.6942127     0.2255827     0.7136834
C           0.0028929    -1.6172542    -0.2927736
H          -0.9719844    -1.4723745    -0.7686984
H          -0.1832899    -1.9788486     0.7249857
C           2.2684925    -0.7938124    -0.4394442
C           2.2795663    -2.0599275    -0.8883934
H           3.1800428    -2.6144606    -1.1393187
C           0.8951236    -2.6396232    -1.0439139
H           0.8051888    -3.6544713    -0.6357395
H           0.6240984    -2.7134944    -2.1091656
C           5.7298306     1.6976205     0.0963107
H           6.6082147     2.3221481     0.2355997
C           4.6838583     1.7389167     1.0202383
H           4.7484850     2.3912142     1.8874139
C           3.5545431     0.9418449     0.8385954
H           2.7519107     0.9762451     1.5703226
C           3.4447795     0.0837419    -0.2695988
C           4.5063720     0.0550775    -1.1911313
H           4.4291061    -0.5872251    -2.0640366
C           5.6357619     0.8518607    -1.0108105
H           6.4407869     0.8178227    -1.7405360
23
352_C11H12_0-6-18-16 (60,) energy =    -426.3847115
C           0.8309748    -0.2768605    -0.3653832
H           0.6343548     0.3496496    -1.2484659
H           0.6325384     0.3580155     0.5075347
C          -0.0218049    -1.5694895    -0.3657554
H          -0.9566533    -1.4605653    -0.9244027
H          -0.2880778    -1.8289218     0.6653132
C           2.2623192    -0.7935501    -0.4165353
C           2.2848960    -2.0931616    -0.7490753
H           3.1928711    -2.6738622    -0.8900689
C           0.9039296    -2.6699855    -0.9482790
H           0.7664706    -3.6394621    -0.4525183
H           0.7088226    -2.8431358    -2.0184833
C           5.7235498     1.7042655     0.0904400
H           6.6028727     2.3292318     0.2220696
C           4.7542783     1.6337822     1.0937446
H           4.8814581     2.1981927     2.0140266
C           3.6250241     0.8345349     0.9227092
H           2.8802965     0.7781223     1.7127332
C           3.4392098     0.0901926    -0.2547273
C           4.4253540     0.1654994    -1.2516472
H           4.2918361    -0.4025387    -2.1682820
C           5.5548457     0.9669219    -1.0824817
H           6.3029390     1.0164297    -1.8696268
23
352_C11H12_0-6-18-16 (75,) energy =    -426.3830991
C           0.8503568    -0.2558724    -0.5183928
H           0.7347861     0.2822533    -1.4715686
H           0.6099223     0.4684659     0.2704332
C          -0.0331810    -1.5262750    -0.4528061
H          -0.9168140    -1.4617893    -1.0954614
H          -0.3886404    -1.6682329     0.5741703
C           2.2672176    -0.8019560    -0.4063161
C           2.2833553    -2.1285377    -0.5946745
H           3.1848344    -2.7357033    -0.6073800
C           0.9063271    -2.7000516    -0.8373412
H           0.7069469    -3.6061182    -0.2509883
H           0.7893933    -2.9873527    -1.8940997
C           5.7179748     1.7167279     0.0891512
H           6.5927692     2.3490242     0.2160821
C           4.8423819     1.5065367     1.1568538
H           5.0375546     1.9698701     2.1206537
C           3.7196035     0.6959037     0.9931467
H           3.0455990     0.5293202     1.8298606
C           3.4495192     0.0809440    -0.2401082
C           4.3417690     0.2937157    -1.3019466
H           4.1464063    -0.1827282    -2.2589390
C           5.4643753     1.1073953    -1.1403856
H           6.1423575     1.2625073    -1.9758455
23
352_C11H12_0-6-18-16 (90,) energy =    -426.3822834
C           0.8964122    -0.2551167    -0.6974107
H           0.8565298     0.1702498    -1.7120687
H           0.6354460     0.5632560    -0.0145038
C          -0.0333133    -1.4849032    -0.5419782
H          -0.8631054    -1.4819869    -1.2557624
H          -0.4705548    -1.4835892     0.4629563
C           2.2834057    -0.8199359    -0.4220372
C           2.2644990    -2.1588370    -0.4245811
H           3.1426274    -2.7844437    -0.2873922
C           0.8896892    -2.7225324    -0.6981723
H           0.6163849    -3.5380218    -0.0163636
H           0.8404524    -3.1436818    -1.7144506
C           5.7035352     1.7365094     0.1005390
H           6.5660633     2.3842636     0.2333067
C           4.9360467     1.3557638     1.2028424
H           5.2003462     1.7041412     2.1980796
C           3.8287985     0.5240010     1.0324296
H           3.2349616     0.2259548     1.8927653
C           3.4724213     0.0547948    -0.2411270
C           4.2515246     0.4453613    -1.3409256
H           3.9883607     0.0860898    -2.3325413
C           5.3582015     1.2785353    -1.1721303
H           5.9528460     1.5668325    -2.0352760
23
352_C11H12_0-6-18-16 (105,) energy =    -426.3828641
C           0.9473574    -0.2807553    -0.8811394
H           0.9727696     0.0117929    -1.9423500
H           0.6765845     0.6237370    -0.3225734
C          -0.0287566    -1.4572353    -0.6262565
H          -0.8126903    -1.5300701    -1.3866891
H          -0.5266945    -1.3108322     0.3389716
C           2.2972812    -0.8380902    -0.4496149
C           2.2322495    -2.1631286    -0.2632108
H           3.0777450    -2.7846343     0.0200582
C           0.8614152    -2.7262468    -0.5559070
H           0.5180923    -3.4370272     0.2067380
H           0.8643037    -3.2777813    -1.5089652
C           5.6884967     1.7461180     0.1163078
H           6.5402374     2.4057704     0.2597134
C           5.0303759     1.1979285     1.2180456
H           5.3668699     1.4310892     2.2250903
C           3.9357918     0.3518964     1.0325108
H           3.4212958    -0.0709365     1.8912905
C           3.4870342     0.0297157    -0.2573461
C           4.1499077     0.5985356    -1.3568463
H           3.8100450     0.3648140    -2.3627817
C           5.2439748     1.4436292    -1.1726096
H           5.7510356     1.8655281    -2.0366791
23
352_C11H12_0-6-18-16 (120,) energy =    -426.3844465
C           0.9951280    -0.3213315    -1.0385228
H           1.0878505    -0.1608182    -2.1238528
H           0.7087305     0.6467680    -0.6099680
C          -0.0191566    -1.4458369    -0.7089831
H          -0.7576550    -1.5966868    -1.5026862
H          -0.5705409    -1.1794880     0.1999092
C           2.3032250    -0.8401518    -0.4564802
C           2.1976793    -2.1341438    -0.1195759
H           3.0109428    -2.7300368     0.2866555
C           0.8380353    -2.7097610    -0.4352071
H           0.4323242    -3.3221451     0.3804887
H           0.8894358    -3.3690952    -1.3157219
C           5.6885069     1.7425318     0.1302425
H           6.5385933     2.4026864     0.2807115
C           5.1294057     1.0581051     1.2103703
H           5.5396911     1.1875992     2.2086857
C           4.0349938     0.2144612     1.0166100
H           3.5906798    -0.3066369     1.8602504
C           3.4886591     0.0257811    -0.2630188
C           4.0487942     0.7370681    -1.3377636
H           3.6308026     0.6157972    -2.3340005
C           5.1427052     1.5795654    -1.1451385
H           5.5696409     2.1107971    -1.9920357
23
352_C11H12_0-6-18-16 (135,) energy =    -426.3862313
C           1.0409010    -0.3794284    -1.1648361
H           1.2080432    -0.3535662    -2.2528036
H           0.7405978     0.6348980    -0.8756418
C          -0.0105584    -1.4494046    -0.7791467
H          -0.7113261    -1.6686300    -1.5909467
H          -0.6003208    -1.0858943     0.0701136
C           2.2975345    -0.8385745    -0.4371684
C           2.1525940    -2.0959834     0.0122487
H           2.9292752    -2.6583045     0.5240569
C           0.8097467    -2.6892007    -0.3377267
H           0.3448845    -3.2239780     0.5006874
H           0.9092506    -3.4245610    -1.1516873
C           5.6907118     1.7338721     0.1331793
H           6.5447050     2.3897212     0.2799849
C           5.2249152     0.9391507     1.1825611
H           5.7117152     0.9795399     2.1537070
C           4.1246565     0.1035605     0.9959121
H           3.7491096    -0.4956617     1.8208472
C           3.4764560     0.0300367    -0.2490679
C           3.9426379     0.8532075    -1.2890043
H           3.4462627     0.8262115    -2.2555538
C           5.0428652     1.6889907    -1.1030024
H           5.3938530     2.3082080    -1.9246462
23
352_C11H12_0-6-18-16 (150,) energy =    -426.3875011
C           1.0985029    -0.4232684    -1.2714111
H           1.3521300    -0.5037945    -2.3397131
H           0.7853337     0.6147074    -1.1055961
C           0.0083538    -1.4478978    -0.8731172
H          -0.6360099    -1.7305266    -1.7115609
H          -0.6348914    -1.0099648    -0.1013439
C           2.2893272    -0.8166559    -0.4073352
C           2.1005993    -2.0370200     0.1246208
H           2.8317841    -2.5663449     0.7297847
C           0.7812417    -2.6503136    -0.2732255
H           0.2517694    -3.1140551     0.5692876
H           0.9325642    -3.4497588    -1.0158771
C           5.7055410     1.7335337     0.1241981
H           6.5678575     2.3808611     0.2593834
C           5.3273401     0.8445657     1.1336694
H           5.8911407     0.8023462     2.0621628
C           4.2177254     0.0204095     0.9636295
H           3.9142932    -0.6476715     1.7648875
C           3.4653220     0.0525473    -0.2250175
C           3.8475143     0.9664164    -1.2228880
H           3.2770095     1.0220087    -2.1458963
C           4.9586470     1.7918571    -1.0532190
H           5.2397124     2.4839679    -1.8429219
23
352_C11H12_0-6-18-16 (165,) energy =    -426.3880102
C           1.1555608    -0.4871056    -1.3522272
H           1.4989384    -0.6580064    -2.3840627
H           0.8315999     0.5597329    -1.3032415
C           0.0283966    -1.4723126    -0.9601530
H          -0.5482285    -1.8228091    -1.8218879
H          -0.6715817    -0.9703286    -0.2825102
C           2.2711538    -0.8047118    -0.3648217
C           2.0299949    -1.9796010     0.2453755
H           2.7034051    -2.4663467     0.9453931
C           0.7402652    -2.6201245    -0.2010571
H           0.1424046    -3.0085192     0.6338430
H           0.9423708    -3.4813408    -0.8577668
C           5.7092217     1.7319100     0.1114010
H           6.5782981     2.3734362     0.2295883
C           5.4192213     0.7540311     1.0676327
H           6.0613293     0.6355400     1.9367581
C           4.3040991    -0.0648069     0.9200247
H           4.0803158    -0.8044068     1.6834336
C           3.4483249     0.0636521    -0.1912476
C           3.7488466     1.0600578    -1.1369404
H           3.1064105     1.1878543    -2.0031076
C           4.8671766     1.8811497    -0.9901194
H           5.0783662     2.6398242    -1.7394134
23
352_C11H12_0-6-18-16 (180,) energy =    -426.3877621
C           1.2209154    -0.5549208    -1.4321368
H           1.6451213    -0.8089797    -2.4154029
H           0.8943374     0.4900925    -1.4972203
C           0.0578522    -1.5002344    -1.0469877
H          -0.4483194    -1.9278018    -1.9180865
H          -0.6919341    -0.9380824    -0.4787025
C           2.2567296    -0.7862257    -0.3385690
C           1.9498339    -1.8958089     0.3591461
H           2.5488652    -2.3145977     1.1626933
C           0.6947827    -2.5726884    -0.1294368
H           0.0276240    -2.8819541     0.6856704
H           0.9433899    -3.4911404    -0.6850579
C           5.7137636     1.7377224     0.1053219
H           6.5871033     2.3750660     0.2141556
C           5.5066169     0.6681246     0.9820221
H           6.2206884     0.4702219     1.7774219
C           4.3895740    -0.1486139     0.8438910
H           4.2479806    -0.9714222     1.5382616
C           3.4397258     0.0775450    -0.1724059
C           3.6662250     1.1569484    -1.0451880
H           2.9609033     1.3583634    -1.8452640
C           4.7877001     1.9760681    -0.9087528
H           4.9353877     2.8021884    -1.5996369
