23
078_C12H10O_5-6-10-9 (-165,) energy =    -538.5124462
C           0.1399077     1.4927090     0.3893957
C          -1.1062198     1.1292718    -0.1239184
C          -1.4022787    -0.2117348    -0.3746072
C          -0.4467464    -1.1939279    -0.1014359
C           0.7985649    -0.8437621     0.4202163
C           1.0857985     0.5034349     0.6575733
O           2.2727016     0.8933029     1.2541993
C           6.0476151     0.1663522    -0.3659263
C           5.8807766     0.5287851     0.9735845
C           4.6075502     0.7498799     1.4926537
C           3.4883808     0.6076690     0.6659500
C           3.6407252     0.2561973    -0.6782486
C           4.9243293     0.0342089    -1.1823465
H           0.3902691     2.5291006     0.5927252
H          -1.8449115     1.8989974    -0.3303757
H          -2.3720080    -0.4911688    -0.7764559
H          -0.6732275    -2.2406453    -0.2859484
H           1.5431791    -1.6000897     0.6479570
H           7.0414627    -0.0082810    -0.7676129
H           6.7465893     0.6390529     1.6211572
H           4.4579056     1.0318363     2.5301472
H           2.7728341     0.1622349    -1.3213564
H           5.0403556    -0.2390359    -2.2279549
23
078_C12H10O_5-6-10-9 (-150,) energy =    -538.5127058
C           0.0266514     1.1329459    -0.8295960
C          -1.1879871     0.4494114    -0.7736827
C          -1.3728580    -0.5881526     0.1423333
C          -0.3350250    -0.9333274     1.0110536
C           0.8817880    -0.2520543     0.9721915
C           1.0569012     0.7779939     0.0430051
O           2.2041227     1.5481911    -0.0006291
C           6.0697715    -0.0054509     0.1871316
C           5.7650039     1.2535754     0.7099256
C           4.4604892     1.7421795     0.6606419
C           3.4545481     0.9666968     0.0785447
C           3.7473610    -0.2905537    -0.4584391
C           5.0567985    -0.7695474    -0.3949025
H           0.1916283     1.9417681    -1.5343883
H          -1.9894875     0.7276639    -1.4527072
H          -2.3181465    -1.1217213     0.1811660
H          -0.4728735    -1.7337625     1.7331502
H           1.6862811    -0.5096460     1.6533849
H           7.0862395    -0.3856919     0.2307550
H           6.5447674     1.8594822     1.1636193
H           4.2031649     2.7171398     1.0624363
H           2.9635800    -0.8805840    -0.9213879
H           5.2838453    -1.7468044    -0.8128355
23
078_C12H10O_5-6-10-9 (-135,) energy =    -538.5126845
C          -0.0316983     1.1342413    -0.8681446
C          -1.2501222     0.4809831    -0.6906695
C          -1.3762095    -0.5365150     0.2581530
C          -0.2717709    -0.8898498     1.0353209
C           0.9526311    -0.2394096     0.8740799
C           1.0672816     0.7709091    -0.0854575
O           2.2199457     1.5095024    -0.2701137
C           6.0543939    -0.0246114     0.3042115
C           5.6862433     1.2112775     0.8393224
C           4.3899315     1.6977710     0.6667497
C           3.4634035     0.9433719    -0.0543311
C           3.8212668    -0.2920143    -0.6025572
C           5.1177108    -0.7712544    -0.4146855
H           0.0870540     1.9258292    -1.6012737
H          -2.1024813     0.7666855    -1.3013181
H          -2.3254853    -1.0471779     0.3914921
H          -0.3601352    -1.6746495     1.7820232
H           1.8071397    -0.5080593     1.4859333
H           7.0631127    -0.4025895     0.4436654
H           6.4077838     1.8003878     1.3989553
H           4.0831663     2.6554288     1.0753094
H           3.0924332    -0.8626435    -1.1691578
H           5.3976562    -1.7307937    -0.8413114
23
078_C12H10O_5-6-10-9 (-120,) energy =    -538.5124447
C          -0.0662528     1.1253279    -0.8960038
C          -1.2871575     0.5220900    -0.6035660
C          -1.3726031    -0.4657345     0.3814472
C          -0.2217347    -0.8393349     1.0758090
C           1.0091668    -0.2406109     0.7983910
C           1.0804223     0.7411354    -0.1938322
O           2.2381742     1.4220191    -0.5136175
C           6.0381356    -0.0343477     0.3927822
C           5.5861000     1.1659543     0.9438897
C           4.3003604     1.6313604     0.6622234
C           3.4742415     0.8912570    -0.1831741
C           3.9162173    -0.3091537    -0.7456981
C           5.1996458    -0.7684236    -0.4503060
H           0.0204765     1.8928086    -1.6587367
H          -2.1754719     0.8238537    -1.1521821
H          -2.3253181    -0.9369647     0.6048251
H          -0.2755302    -1.6020988     1.8482714
H           1.8992765    -0.5289493     1.3466818
H           7.0382750    -0.3949632     0.6156162
H           6.2328390     1.7433601     1.5989458
H           3.9292092     2.5623915     1.0789063
H           3.2592570    -0.8652382    -1.4072828
H           5.5476821    -1.7002176    -0.8879784
23
078_C12H10O_5-6-10-9 (-105,) energy =    -538.5121979
C          -0.0869960     1.1183801    -0.9148501
C          -1.3100729     0.5841462    -0.5187468
C          -1.3709146    -0.3719375     0.4995206
C          -0.1919576    -0.7848752     1.1191825
C           1.0435172    -0.2569111     0.7354939
C           1.0890573     0.6955487    -0.2859064
O           2.2508769     1.2956748    -0.7281732
C           6.0242404    -0.0177202     0.4630046
C           5.4665948     1.1301965     1.0293868
C           4.1905158     1.5530641     0.6524053
C           3.4816227     0.8211262    -0.2997526
C           4.0292458    -0.3268089    -0.8759436
C           5.3032106    -0.7433903    -0.4886535
H          -0.0194950     1.8606233    -1.7040884
H          -2.2205710     0.9159560    -1.0108107
H          -2.3264094    -0.7882845     0.8049223
H          -0.2250045    -1.5253103     1.9142709
H           1.9557871    -0.5793252     1.2247466
H           7.0174904    -0.3437269     0.7583797
H           6.0241327     1.7004901     1.7673799
H           3.7400589     2.4450016     1.0765473
H           3.4590007    -0.8732567    -1.6208636
H           5.7350690    -1.6341183    -0.9368596
23
078_C12H10O_5-6-10-9 (-90,) energy =    -538.5121408
C          -0.0939761     1.1099159    -0.9267432
C          -1.3203921     0.6648843    -0.4414187
C          -1.3769434    -0.2596719     0.6059744
C          -0.1894110    -0.7338671     1.1616836
C           1.0502920    -0.2979455     0.6861778
C           1.0909074     0.6265260    -0.3606449
O           2.2570532     1.1213196    -0.9087838
C           6.0194016     0.0218622     0.5124673
C           5.3392921     1.0955908     1.0917694
C           4.0678820     1.4511501     0.6388691
C           3.4839011     0.7225021    -0.3980130
C           4.1533634    -0.3510322    -0.9859057
C           5.4248670    -0.6980829    -0.5261812
H          -0.0301306     1.8273189    -1.7389308
H          -2.2375179     1.0437247    -0.8848348
H          -2.3354940    -0.6046637     0.9824433
H          -0.2182586    -1.4531351     1.9761374
H           1.9693890    -0.6718317     1.1231406
H           7.0100561    -0.2497330     0.8659622
H           5.7998106     1.6623916     1.8963815
H           3.5269563     2.2877680     1.0701968
H           3.6772666    -0.8927881    -1.7972925
H           5.9517914    -1.5309846    -0.9837341
23
078_C12H10O_5-6-10-9 (-75,) energy =    -538.5122633
C          -0.0826726     1.0951534    -0.9324596
C          -1.3126473     0.7560623    -0.3749690
C          -1.3835230    -0.1338489     0.7008584
C          -0.2072760    -0.6837467     1.2096984
C           1.0349477    -0.3569309     0.6601296
C           1.0900421     0.5373199    -0.4122021
O           2.2596306     0.9079457    -1.0448124
C           6.0274119     0.0822938     0.5368206
C           5.2227206     1.0570823     1.1324230
C           3.9495487     1.3243936     0.6287827
C           3.4849275     0.6019102    -0.4724642
C           4.2789204    -0.3725771    -1.0761809
C           5.5540626    -0.6279691    -0.5679854
H          -0.0074545     1.7852550    -1.7670027
H          -2.2206496     1.1925052    -0.7827112
H          -2.3442178    -0.3945155     1.1352866
H          -0.2481014    -1.3799036     2.0434572
H           1.9450982    -0.7925353     1.0571549
H           7.0199681    -0.1189361     0.9297456
H           5.5891591     1.6182873     1.9877614
H           3.3163450     2.0862789     1.0729067
H           3.8930501    -0.9094166    -1.9371138
H           6.1768693    -1.3841072    -1.0381954
23
078_C12H10O_5-6-10-9 (-60,) energy =    -538.5125344
C          -0.0586534     1.0710341    -0.9371985
C          -1.2913101     0.8456873    -0.3285946
C          -1.3923732    -0.0069263     0.7740224
C          -0.2461701    -0.6382942     1.2581694
C           0.9957852    -0.4275848     0.6556398
C           1.0828959     0.4335833    -0.4418890
O           2.2540410     0.6693533    -1.1342067
C           6.0394722     0.1613276     0.5374379
C           5.1232558     1.0179010     1.1533985
C           3.8431087     1.1831896     0.6250148
C           3.4809164     0.4728812    -0.5229911
C           4.3871302    -0.3841115    -1.1472500
C           5.6686410    -0.5344470    -0.6145783
H           0.0407363     1.7312081    -1.7931177
H          -2.1761506     1.3432795    -0.7166351
H          -2.3541351    -0.1775659     1.2489037
H          -0.3127603    -1.3087431     2.1110728
H           1.8829800    -0.9270623     1.0293741
H           7.0365165     0.0405759     0.9512685
H           5.4078867     1.5693830     2.0454905
H           3.1277248     1.8549818     1.0890173
H           4.0785832    -0.9140076    -2.0428839
H           6.3760437    -1.2000686    -1.1017413
23
078_C12H10O_5-6-10-9 (-45,) energy =    -538.5127157
C          -0.0144996     1.0405620    -0.9340433
C          -1.2477689     0.9307958    -0.2932236
C          -1.3927369     0.1108007     0.8281852
C          -0.2924009    -0.6074936     1.3000047
C           0.9462569    -0.5138234     0.6639839
C           1.0795053     0.3181389    -0.4518081
O           2.2495727     0.4167127    -1.1799655
C           6.0551491     0.2632279     0.5170269
C           5.0495342     0.9914079     1.1569869
C           3.7608042     1.0430915     0.6253323
C           3.4805720     0.3466861    -0.5543108
C           4.4775660    -0.3832986    -1.2037597
C           5.7642431    -0.4189346    -0.6660817
H           0.1189274     1.6736187    -1.8056108
H          -2.0970613     1.4937728    -0.6710288
H          -2.3536944     0.0307943     1.3280534
H          -0.3956666    -1.2548942     2.1668701
H           1.7985624    -1.0802566     1.0240969
H           7.0568488     0.2303769     0.9357229
H           5.2684642     1.5326905     2.0736224
H           2.9797766     1.6169444     1.1134698
H           4.2305522    -0.9070829    -2.1217873
H           6.5394770    -0.9867822    -1.1734882
23
078_C12H10O_5-6-10-9 (-30,) energy =    -538.5126703
C           0.0472351     1.0050194    -0.9233939
C          -1.1857606     1.0143711    -0.2705980
C          -1.3918953     0.2235631     0.8614387
C          -0.3568270    -0.5868173     1.3340576
C           0.8778434    -0.6126724     0.6853485
C           1.0740652     0.1921081    -0.4410956
O           2.2431944     0.1536028    -1.1786705
C           6.0616620     0.3757824     0.4842054
C           4.9936510     0.9758046     1.1531014
C           3.6983462     0.9085223     0.6370195
C           3.4766563     0.2236982    -0.5615161
C           4.5382563    -0.3799849    -1.2409595
C           5.8269000    -0.2983875    -0.7166874
H           0.2284323     1.6123778    -1.8045391
H          -1.9851768     1.6464062    -0.6478560
H          -2.3516083     0.2357848     1.3699821
H          -0.5111278    -1.2122554     2.2093354
H           1.6813003    -1.2494500     1.0413342
H           7.0662432     0.4341205     0.8929403
H           5.1651021     1.5096424     2.0841873
H           2.8720074     1.3849580     1.1533939
H           4.3351163    -0.9010106    -2.1712718
H           6.6496343    -0.7689045    -1.2484307
23
078_C12H10O_5-6-10-9 (-15,) energy =    -538.5123901
C           0.1488819     0.9726994    -0.8890230
C          -1.0804488     1.1100571    -0.2421197
C          -1.3778261     0.3322411     0.8783458
C          -0.4417438    -0.5928205     1.3478409
C           0.7863927    -0.7448677     0.7042515
C           1.0753210     0.0462839    -0.4109981
O           2.2441154    -0.1316732    -1.1321331
C           6.0576721     0.5103561     0.4326440
C           4.9505222     0.9890804     1.1327804
C           3.6548845     0.7887285     0.6503049
C           3.4747131     0.0960782    -0.5500718
C           4.5774077    -0.3882902    -1.2616632
C           5.8623791    -0.1772810    -0.7686024
H           0.4002269     1.5656645    -1.7627337
H          -1.8046479     1.8291034    -0.6153195
H          -2.3344436     0.4425883     1.3810063
H          -0.6703788    -1.2072618     2.2145079
H           1.5163431    -1.4691131     1.0522274
H           7.0609773     0.6707721     0.8163271
H           5.0880799     1.5300940     2.0654247
H           2.7994741     1.1711639     1.1958292
H           4.4056133    -0.9215325    -2.1914300
H           6.7154089    -0.5555290    -1.3257592
23
078_C12H10O_5-6-10-9 (0,) energy =    -538.5121416
C           0.3837583     0.9593829    -0.7224281
C          -0.8388789     1.2597289    -0.1198119
C          -1.3561545     0.4288655     0.8766875
C          -0.6476984    -0.7086880     1.2701564
C           0.5758874    -1.0175388     0.6736394
C           1.0828509    -0.1788666    -0.3193709
O           2.2566919    -0.5266170    -0.9724746
C           6.0157314     0.7594083     0.3024661
C           4.8868939     1.1563991     1.0180662
C           3.6084361     0.7494747     0.6269846
C           3.4687080    -0.0668179    -0.4982762
C           4.5936398    -0.4720230    -1.2251638
C           5.8597458    -0.0574685    -0.8215541
H           0.7987916     1.5877104    -1.5043944
H          -1.3888191     2.1429445    -0.4332603
H          -2.3093083     0.6645549     1.3415086
H          -1.0483927    -1.3611408     2.0411921
H           1.1378343    -1.9012745     0.9595648
H           7.0050637     1.0810247     0.6145141
H           4.9928713     1.7913700     1.8939057
H           2.7356141     1.0625011     1.1887945
H           4.4530565    -1.1060947    -2.0949719
H           6.7300200    -0.3752402    -1.3897944
23
078_C12H10O_5-6-10-9 (15,) energy =    -538.5123887
C           0.6148403     0.9254319    -0.4857173
C          -0.6374704     1.3202289    -0.0153391
C          -1.3961155     0.4586855     0.7814768
C          -0.8958294    -0.8029011     1.1081493
C           0.3601466    -1.2050764     0.6500991
C           1.1084130    -0.3368497    -0.1441284
O           2.3063647    -0.8014831    -0.6608801
C           6.0079933     0.9569258     0.1209722
C           4.9113944     1.3117678     0.9064627
C           3.6515621     0.7547497     0.6740700
C           3.4963658    -0.1686557    -0.3634972
C           4.5887328    -0.5330776    -1.1576615
C           5.8385228     0.0291510    -0.9106734
H           1.2084700     1.5801004    -1.1161331
H          -1.0243100     2.3005589    -0.2804759
H          -2.3729410     0.7686417     1.1416411
H          -1.4819089    -1.4793439     1.7243453
H           0.7668314    -2.1822450     0.8908079
H           6.9832112     1.3962408     0.3095370
H           5.0300830     2.0279981     1.7154086
H           2.8056338     1.0290924     1.2943382
H           4.4371661    -1.2535967    -1.9552902
H           6.6835946    -0.2580157    -1.5308190
23
078_C12H10O_5-6-10-9 (30,) energy =    -538.5126703
C           0.7292906     0.8746603    -0.3749629
C          -0.5465510     1.3117688    -0.0184640
C          -1.4170132     0.4715868     0.6799539
C          -1.0037137    -0.8169889     1.0237563
C           0.2729950    -1.2634370     0.6815164
C           1.1341264    -0.4144319    -0.0152874
O           2.3519537    -0.9395166    -0.4071410
C           5.9940766     1.0511336     0.0035059
C           4.9561836     1.3442350     0.8894129
C           3.7172554     0.7113851     0.7738702
C           3.5206898    -0.2209689    -0.2491759
C           4.5527268    -0.5236799    -1.1416212
C           5.7860729     0.1114001    -1.0091707
H           1.4051097     1.5190585    -0.9279372
H          -0.8631459     2.3131924    -0.2977711
H          -2.4101490     0.8179695     0.9510765
H          -1.6741902    -1.4791952     1.5648725
H           0.6143776    -2.2609898     0.9393702
H           6.9549384     1.5478899     0.1016641
H           5.1082576     2.0678212     1.6860247
H           2.9159810     0.9333141     1.4704178
H           4.3708426    -1.2548393    -1.9229995
H           6.5860459    -0.1271587    -1.7049820
23
078_C12H10O_5-6-10-9 (45,) energy =    -538.5127153
C           0.8105519     0.8355919    -0.2951199
C          -0.4836459     1.2996450    -0.0557892
C          -1.4316932     0.4812294     0.5612264
C          -1.0768932    -0.8152016     0.9411494
C           0.2146903    -1.2891122     0.7155458
C           1.1553999    -0.4608711     0.0988235
O           2.3912483    -1.0216277    -0.1606659
C           5.9694186     1.1183857    -0.0869771
C           5.0118806     1.3515362     0.9028831
C           3.7961184     0.6674592     0.8923112
C           3.5387722    -0.2509146    -0.1301582
C           4.4882344    -0.4937568    -1.1242395
C           5.7034027     0.1907180    -1.0961115
H           1.5441751     1.4676092    -0.7842754
H          -0.7510902     2.3073030    -0.3629752
H          -2.4373654     0.8493721     0.7423061
H          -1.8063604    -1.4623265     1.4208341
H           0.5104462    -2.2925973     1.0048877
H           6.9147829     1.6529848    -0.0698626
H           5.2130307     2.0652527     1.6974075
H           3.0545812     0.8377836     1.6660736
H           4.2617987    -1.2181106    -1.9002462
H           6.4417982    -0.0003640    -1.8701577
23
078_C12H10O_5-6-10-9 (60,) energy =    -538.5125338
C           0.8725570     0.8065606    -0.2211941
C          -0.4370005     1.2765091    -0.1024762
C          -1.4409543     0.4686884     0.4325877
C          -1.1271988    -0.8266149     0.8529667
C           0.1755263    -1.3085566     0.7469718
C           1.1727406    -0.4886087     0.2102470
O           2.4240805    -1.0598408     0.0913881
C           5.9377270     1.1683183    -0.1744448
C           5.0878283     1.3500269     0.9197362
C           3.8952963     0.6331150     1.0156893
C           3.5521752    -0.2622374    -0.0012862
C           4.3931451    -0.4526868    -1.0975671
C           5.5886474     0.2634386    -1.1784991
H           1.6485014     1.4342286    -0.6457530
H          -0.6696079     2.2835142    -0.4389457
H          -2.4568417     0.8427143     0.5203305
H          -1.8996929    -1.4667679     1.2707716
H           0.4395006    -2.3107615     1.0698133
H           6.8674234     1.7261130    -0.2411826
H           5.3573962     2.0463399     1.7093398
H           3.2335098     0.7579350     1.8670498
H           4.1031155    -1.1624162    -1.8658796
H           6.2455490     0.1138314    -2.0310870
23
078_C12H10O_5-6-10-9 (75,) energy =    -538.5122634
C           0.9189088     0.7930258    -0.1572031
C          -0.4010752     1.2508089    -0.1651503
C          -1.4426800     0.4419782     0.2883825
C          -1.1561167    -0.8440520     0.7557138
C           0.1542805    -1.3143407     0.7734205
C           1.1906773    -0.4931047     0.3167474
O           2.4525917    -1.0519853     0.3444852
C           5.9164837     1.1908872    -0.2476726
C           5.1936051     1.3300065     0.9400056
C           4.0187160     0.6047978     1.1394765
C           3.5687006    -0.2561190     0.1360339
C           4.2817403    -0.4044424    -1.0531255
C           5.4596938     0.3215043    -1.2399657
H           1.7233072     1.4251267    -0.5165248
H          -0.6100022     2.2514210    -0.5347424
H          -2.4655373     0.8070239     0.2781458
H          -1.9573144    -1.4862204     1.1119645
H           0.3964407    -2.3092149     1.1338709
H           6.8333247     1.7542421    -0.3962982
H           5.5486528     1.9993998     1.7189043
H           3.4515724     0.6929795     2.0610159
H           3.9111986    -1.0894784    -1.8092481
H           6.0197758     0.2056429    -2.1638771
23
078_C12H10O_5-6-10-9 (90,) energy =    -538.5121399
C           0.9406599     0.8012738    -0.0937958
C          -0.3843958     1.2242365    -0.2288790
C          -1.4429188     0.3943127     0.1381971
C          -1.1691923    -0.8784658     0.6482177
C           0.1447665    -1.3156830     0.7898352
C           1.1981965    -0.4730727     0.4178526
O           2.4648366    -0.9933412     0.5908520
C           5.9019510     1.1864318    -0.3119003
C           5.3164298     1.2954182     0.9515482
C           4.1500800     0.5895491     1.2505130
C           3.5758706    -0.2251662     0.2739612
C           4.1516063    -0.3439586    -0.9912201
C           5.3185608     0.3656067    -1.2796444
H           1.7584142     1.4521676    -0.3820808
H          -0.5828414     2.2159516    -0.6271554
H          -2.4691493     0.7327229     0.0291262
H          -1.9837227    -1.5368388     0.9386515
H           0.3773206    -2.3001018     1.1838278
H           6.8113224     1.7353025    -0.5397225
H           5.7695698     1.9282255     1.7098127
H           3.6846826     0.6540993     2.2291989
H           3.6869745    -0.9932378    -1.7268050
H           5.7731630     0.2733341    -2.2622667
23
078_C12H10O_5-6-10-9 (105,) energy =    -538.5121973
C           0.9300983     0.8305431    -0.0401640
C          -0.3942862     1.1971929    -0.2930521
C          -1.4461227     0.3282616    -0.0047920
C          -1.1653213    -0.9259411     0.5453902
C           0.1489499    -1.3076341     0.8010434
C           1.1959408    -0.4274126     0.5069613
O           2.4625238    -0.8822113     0.8146829
C           5.9042714     1.1541811    -0.3659440
C           5.4501406     1.2424981     0.9514355
C           4.2811299     0.5851770     1.3397954
C           3.5751745    -0.1652871     0.4001047
C           4.0205189    -0.2641969    -0.9195218
C           5.1872961     0.4002963    -1.2985910
H           1.7422610     1.5133976    -0.2629369
H          -0.5981435     2.1765417    -0.7182742
H          -2.4721818     0.6227074    -0.2050479
H          -1.9742504    -1.6142652     0.7757855
H           0.3864535    -2.2775386     1.2267360
H           6.8144005     1.6667972    -0.6642315
H           6.0056393     1.8244325     1.6818400
H           3.9132527     0.6367301     2.3597617
H           3.4562336    -0.8620831    -1.6285553
H           5.5393977     0.3231609    -2.3237212
23
078_C12H10O_5-6-10-9 (120,) energy =    -538.5124444
C           0.8920036     0.8802982    -0.0000372
C          -0.4266456     1.1705920    -0.3569914
C          -1.4481167     0.2471291    -0.1332516
C          -1.1422875    -0.9824000     0.4566980
C           0.1687314    -1.2889666     0.8135683
C           1.1843705    -0.3557968     0.5831087
O           2.4458315    -0.7211195     1.0093959
C           5.9209616     1.0983945    -0.4029022
C           5.5790544     1.1708585     0.9485914
C           4.3973100     0.5873119     1.4091764
C           3.5656772    -0.0775348     0.5085435
C           3.8989806    -0.1618037    -0.8459523
C           5.0778124     0.4321959    -1.2962759
H           1.6811963     1.6047144    -0.1686072
H          -0.6517806     2.1327957    -0.8096560
H          -2.4707672     0.4818879    -0.4137641
H          -1.9279331    -1.7112130     0.6376480
H           0.4259891    -2.2391985     1.2709189
H           6.8399990     1.5553023    -0.7586672
H           6.2305196     1.6856761     1.6495376
H           4.1127663     0.6306056     2.4557622
H           3.2407530    -0.6909110    -1.5280718
H           5.3415405     0.3664879    -2.3484477
23
078_C12H10O_5-6-10-9 (135,) energy =    -538.5126846
C           0.8340701     0.9473646     0.0293216
C          -0.4744523     1.1492247    -0.4126187
C          -1.4468094     0.1628908    -0.2389118
C          -1.1019063    -1.0383130     0.3853829
C           0.2024936    -1.2571685     0.8250863
C           1.1676013    -0.2630414     0.6443361
O           2.4190132    -0.5241818     1.1677095
C           5.9509545     1.0083164    -0.4322504
C           5.6993022     1.0633036     0.9400132
C           4.4988204     0.5758775     1.4576265
C           3.5524412     0.0226012     0.5939122
C           3.7951538    -0.0463823    -0.7812170
C           4.9954281     0.4531839    -1.2868302
H           1.5862646     1.7186920    -0.0970312
H          -0.7329454     2.0908325    -0.8899546
H          -2.4629982     0.3288771    -0.5845775
H          -1.8498927    -1.8137126     0.5278424
H           0.4907273    -2.1842491     1.3105287
H           6.8846774     1.3923049    -0.8329282
H           6.4367215     1.4918254     1.6134034
H           4.2828263     0.6098630     2.5208019
H           3.0537032    -0.4884093    -1.4390444
H           5.1861885     0.3992316    -2.3553762
23
078_C12H10O_5-6-10-9 (150,) energy =    -538.5127063
C           0.7549009     1.0322784     0.0630016
C          -0.5381838     1.1286309    -0.4515805
C          -1.4352964     0.0652564    -0.3271024
C          -1.0305709    -1.1046146     0.3188310
C           0.2624198    -1.2179131     0.8299856
C           1.1503006    -0.1488318     0.6984794
O           2.3871555    -0.2869308     1.3007020
C           5.9815977     0.8976611    -0.4509084
C           5.7966937     0.9428730     0.9329002
C           4.5776936     0.5676666     1.4953746
C           3.5380157     0.1390883     0.6663542
C           3.7128369     0.0785589    -0.7195457
C           4.9364201     0.4646106    -1.2688224
H           1.4508745     1.8605608    -0.0215031
H          -0.8467768     2.0464080    -0.9451287
H          -2.4413482     0.1493139    -0.7278201
H          -1.7209126    -1.9373361     0.4232134
H           0.5970264    -2.1187030     1.3347076
H           6.9309684     1.1946332    -0.8870123
H           6.6030599     1.2759780     1.5808218
H           4.4137616     0.5969174     2.5679729
H           2.9052974    -0.2687662    -1.3551635
H           5.0719414     0.4170483    -2.3461472
23
078_C12H10O_5-6-10-9 (165,) energy =    -538.5124462
C           0.6391298     1.1439182     0.1002330
C          -0.6317296     1.1180594    -0.4740150
C          -1.4180281    -0.0348694    -0.4041954
C          -0.9262252    -1.1688714     0.2446035
C           0.3476313    -1.1581737     0.8151746
C           1.1232776    -0.0015211     0.7384755
O           2.3405641     0.0010803     1.3978678
C           5.9983342     0.7559956    -0.4599928
C           5.8558757     0.8085432     0.9294031
C           4.6191809     0.5680530     1.5227979
C           3.5124444     0.2718513     0.7205121
C           3.6425486     0.2054128    -0.6695534
C           4.8889327     0.4530005    -1.2493864
H           1.2529034     2.0384800     0.0627556
H          -1.0115916     2.0072343    -0.9700181
H          -2.4087479    -0.0469380    -0.8494663
H          -1.5326150    -2.0684568     0.3063136
H           0.7489881    -2.0281526     1.3252654
H           6.9633695     0.9468028    -0.9202823
H           6.7120456     1.0399479     1.5575424
H           4.4888047     0.6044426     2.5998237
H           2.7867258    -0.0402122    -1.2883490
H           4.9876316     0.4007791    -2.3305711
23
078_C12H10O_5-6-10-9 (180,) energy =    -538.5121415
C           0.3909900     1.3610049     0.2670257
C          -0.8471985     1.1590951    -0.3449302
C          -1.3724594    -0.1295475    -0.4643706
C          -0.6563320    -1.2207230     0.0330157
C           0.5826008    -1.0293800     0.6467283
C           1.0973309     0.2626583     0.7582471
O           2.2879793     0.4671704     1.4405975
C           6.0074336     0.4451611    -0.4497813
C           5.8827188     0.6614534     0.9259612
C           4.6290512     0.6635416     1.5310201
C           3.4853955     0.4471658     0.7543644
C           3.5940012     0.2297710    -0.6214982
C           4.8602641     0.2309276    -1.2127307
H           0.8126421     2.3553173     0.3769086
H          -1.4028115     2.0118827    -0.7254473
H          -2.3375586    -0.2823849    -0.9390693
H          -1.0631254    -2.2246871    -0.0525604
H           1.1506882    -1.8633341     1.0471419
H           6.9870284     0.4441081    -0.9187942
H           6.7675744     0.8300916     1.5341179
H           4.5124885     0.8296205     2.5974161
H           2.7067600     0.0623604    -1.2216894
H           4.9420949     0.0615921    -2.2833114
