29
021_C12H15NO_0-10-11-23 (-165,) energy =    -596.3054157
C           0.0673244    -0.5303133    -1.5333248
H           0.1883506    -0.8841595    -2.5553941
C          -1.2124701    -0.3757211    -1.0030088
H          -2.0811444    -0.6092596    -1.6132492
C          -1.3773732     0.0652207     0.3121903
H          -2.3740081     0.1819397     0.7293484
C          -0.2524727     0.3423317     1.0884208
H          -0.3685509     0.6738635     2.1172098
C           1.0284755     0.1879858     0.5527251
H           1.8993342     0.3813206     1.1722510
C           1.2033114    -0.2400306    -0.7661854
C           2.5784179    -0.4049581    -1.4014013
H           2.7524739     0.4097391    -2.1178376
H           2.6015792    -1.3447871    -1.9589710
C           6.2382280    -0.3926186     0.8737558
H           6.8322258    -0.3468407    -0.0496988
H           6.9511296    -0.4087400     1.7064536
C           5.3264352     0.8323715     0.9529020
H           5.9041145     1.7639705     0.9699293
H           4.7415007     0.7976175     1.8822301
C           4.3854422     0.8609519    -0.2483904
H           4.9525003     1.1296804    -1.1551369
H           3.6207077     1.6346810    -0.1132612
N           3.7001643    -0.4197469    -0.4663555
C           4.1857903    -1.6475363    -0.0679677
O           3.6550060    -2.6962302    -0.4171579
C           5.3806289    -1.6612313     0.8839473
H           5.9597761    -2.5567406     0.6405413
H           4.9700557    -1.8259455     1.8903187
29
021_C12H15NO_0-10-11-23 (-150,) energy =    -596.3047927
C           0.1154608    -0.6920665    -1.4642663
H           0.2748825    -1.1515566    -2.4373394
C          -1.1708487    -0.6398897    -0.9267485
H          -2.0058414    -1.0560839    -1.4844521
C          -1.3819729    -0.0694315     0.3295832
H          -2.3818736    -0.0328711     0.7536956
C          -0.2968786     0.4433572     1.0420291
H          -0.4488546     0.8805543     2.0256968
C           0.9875350     0.3933838     0.4982462
H           1.8277308     0.7778583     1.0700135
C           1.2085471    -0.1696957    -0.7633746
C           2.5877968    -0.1931333    -1.4069695
H           2.7386741     0.7247018    -1.9902004
H           2.6420223    -1.0370268    -2.0999691
C           6.2322842    -0.5043913     0.8796113
H           6.8334866    -0.4930882    -0.0402761
H           6.9365778    -0.5920831     1.7151493
C           5.4245201     0.7905814     0.9746618
H           6.0777895     1.6703240     1.0098921
H           4.8324847     0.7891874     1.8999941
C           4.4956879     0.9179237    -0.2301136
H           5.0888012     1.1534544    -1.1294879
H           3.8003159     1.7527279    -0.0841413
N           3.7062088    -0.2973744    -0.4682100
C           4.0884952    -1.5663969    -0.0911044
O           3.4728511    -2.5585135    -0.4658053
C           5.2728434    -1.6979017     0.8647952
H           5.7771932    -2.6336486     0.6066006
H           4.8451112    -1.8459688     1.8665520
29
021_C12H15NO_0-10-11-23 (-135,) energy =    -596.3046747
C           0.1861814    -0.8428802    -1.3774857
H           0.4036915    -1.4110315    -2.2786073
C          -1.0985226    -0.8707817    -0.8322527
H          -1.8772524    -1.4549519    -1.3157057
C          -1.3776659    -0.1634584     0.3374078
H          -2.3757979    -0.1877464     0.7666385
C          -0.3634477     0.5698211     0.9574044
H          -0.5697534     1.1203010     1.8718772
C           0.9171329     0.5989755     0.4057811
H           1.7006311     1.1666546     0.9018019
C           1.2069803    -0.1054301    -0.7696362
C           2.5844225    -0.0424490    -1.4109484
H           2.7283910     0.9351844    -1.8874853
H           2.6518003    -0.8052323    -2.1916237
C           6.2046199    -0.6240705     0.8694395
H           6.8111804    -0.6115802    -0.0469440
H           6.8981423    -0.7798393     1.7040734
C           5.4672144     0.7082798     1.0090641
H           6.1670352     1.5493553     1.0789624
H           4.8701021     0.7049366     1.9309498
C           4.5523293     0.9307189    -0.1927247
H           5.1613264     1.1667572    -1.0814138
H           3.9048400     1.7975376    -0.0166490
N           3.6985297    -0.2298893    -0.4749164
C           4.0145467    -1.5303167    -0.1502576
O           3.3516858    -2.4719853    -0.5729239
C           5.1825687    -1.7627760     0.8062919
H           5.6376420    -2.7141034     0.5155739
H           4.7405412    -1.9239927     1.7997728
29
021_C12H15NO_0-10-11-23 (-120,) energy =    -596.3050835
C           0.3034144    -0.9307066    -1.1981854
H           0.5960428    -1.6204068    -1.9850807
C          -0.9739367    -1.0074483    -0.6399700
H          -1.6795135    -1.7476275    -1.0082776
C          -1.3398393    -0.1440548     0.3928896
H          -2.3330515    -0.2031666     0.8302472
C          -0.4208979     0.7971429     0.8631465
H          -0.6984079     1.4754320     1.6660611
C           0.8517251     0.8744452     0.2983594
H           1.5556653     1.6171366     0.6674910
C           1.2305259     0.0091759    -0.7369723
C           2.6013514     0.1112664    -1.3850089
H           2.7444315     1.1159926    -1.8000462
H           2.6678829    -0.6045040    -2.2082671
C           6.2293489    -0.6055415     0.8441069
H           6.8288879    -0.5176735    -0.0727686
H           6.9302440    -0.8181702     1.6598172
C           5.4806273     0.7047713     1.0905047
H           6.1728413     1.5446797     1.2225220
H           4.8885129     0.6235082     2.0118760
C           4.5566693     1.0125194    -0.0856512
H           5.1569574     1.3331293    -0.9535391
H           3.8975258     1.8509936     0.1670665
N           3.7211559    -0.1328228    -0.4641368
C           4.0425003    -1.4496590    -0.2302764
O           3.3826503    -2.3636231    -0.7166097
C           5.2160997    -1.7446731     0.7014932
H           5.6764482    -2.6682101     0.3383934
H           4.7804955    -1.9828758     1.6822352
29
021_C12H15NO_0-10-11-23 (-105,) energy =    -596.3064430
C           0.3982806    -1.0605415    -0.9580048
H           0.7528489    -1.8928893    -1.5591602
C          -0.8712955    -1.0998280    -0.3798056
H          -1.5163080    -1.9573747    -0.5530585
C          -1.3125690    -0.0417371     0.4164293
H          -2.3019257    -0.0704062     0.8654562
C          -0.4796879     1.0593814     0.6245815
H          -0.8208933     1.8947938     1.2306854
C           0.7867724     1.0980654     0.0401842
H           1.4117124     1.9771872     0.1815133
C           1.2487843     0.0314319    -0.7435169
C           2.6125934     0.0686563    -1.4112124
H           2.7920271     1.0607480    -1.8441251
H           2.6508527    -0.6677339    -2.2149592
C           6.2301659    -0.6400465     0.8237169
H           6.8212156    -0.3563787    -0.0582605
H           6.9452521    -0.9029577     1.6119731
C           5.3493512     0.5346434     1.2490280
H           5.9486050     1.4083185     1.5309354
H           4.7577891     0.2497802     2.1293478
C           4.4130610     0.9324567     0.1097400
H           4.9796715     1.4722962    -0.6670213
H           3.6509074     1.6248280     0.4845996
N           3.7342896    -0.2140556    -0.5009459
C           4.1433703    -1.5225240    -0.4072152
O           3.5600960    -2.4262238    -1.0023367
C           5.3348619    -1.8370680     0.4948384
H           5.8846991    -2.6482452     0.0081984
H           4.9201061    -2.2605236     1.4204005
29
021_C12H15NO_0-10-11-23 (-90,) energy =    -596.3084659
C           0.5258696    -1.0872793    -0.7169006
H           0.9438050    -1.9946305    -1.1442110
C          -0.7277820    -1.1033505    -0.1062251
H          -1.2997476    -2.0270725    -0.0727560
C          -1.2516969     0.0641181     0.4548556
H          -2.2303647     0.0516507     0.9274298
C          -0.5178207     1.2492973     0.3952724
H          -0.9243479     2.1650771     0.8168005
C           0.7360504     1.2638364    -0.2197480
H           1.2883606     2.1988391    -0.2910630
C           1.2785710     0.0947901    -0.7684046
C           2.6350072     0.0961942    -1.4481723
H           2.8380886     1.0854467    -1.8787583
H           2.6579378    -0.6421130    -2.2500458
C           6.1945627    -0.6228590     0.8643989
H           6.7918421    -0.1794558     0.0555774
H           6.8990356    -0.9265345     1.6475453
C           5.1973235     0.4095030     1.3899461
H           5.7046044     1.2836446     1.8145479
H           4.5961330    -0.0372070     2.1931431
C           4.2802637     0.8774034     0.2617849
H           4.8256935     1.5700136    -0.4002093
H           3.4333077     1.4353381     0.6788604
N           3.7470296    -0.2260197    -0.5407049
C           4.2308188    -1.5111611    -0.5557005
O           3.7233234    -2.3908681    -1.2496480
C           5.4210101    -1.8367873     0.3444463
H           6.0561646    -2.5242781    -0.2227289
H           5.0211382    -2.4175208     1.1873242
29
021_C12H15NO_0-10-11-23 (-75,) energy =    -596.3095407
C           0.7225142    -0.5037200     1.1207883
H           1.3159964    -0.7081792     2.0079638
C          -0.4755450     0.2019121     1.2155047
H          -0.8230593     0.5473558     2.1858172
C          -1.2338625     0.4595153     0.0692857
H          -2.1693700     1.0075094     0.1455235
C          -0.7880026     0.0044437    -1.1711147
H          -1.3744454     0.1951118    -2.0662638
C           0.4136112    -0.7032392    -1.2641267
H           0.7506219    -1.0688495    -2.2323279
C           1.1826169    -0.9603226    -0.1238521
C           2.4913350    -1.7224183    -0.2109586
H           2.5619246    -2.2389627    -1.1769690
H           2.5536939    -2.4661350     0.5849749
C           6.1984323     0.4643269    -0.0857939
H           6.7010582    -0.3741881    -0.5875778
H           6.9619631     1.2313678     0.0888307
C           5.0761576     0.9948011    -0.9781308
H           5.4625440     1.3792236    -1.9292413
H           4.5681517     1.8281592    -0.4745588
C           4.0723237    -0.1175926    -1.2710730
H           4.4999192    -0.8218818    -2.0035588
H           3.1656967     0.3020426    -1.7241517
N           3.6738144    -0.8610536    -0.0728381
C           4.3393637    -0.8579655     1.1277262
O           3.9380901    -1.4963838     2.0998583
C           5.5979539     0.0001014     1.2434825
H           6.3092611    -0.5762179     1.8432954
H           5.3203657     0.8697565     1.8551825
29
021_C12H15NO_0-10-11-23 (-60,) energy =    -596.3095205
C           0.8425359    -0.2956373     1.0134721
H           1.5269575    -0.3517283     1.8556732
C          -0.3592163     0.4008003     1.1255632
H          -0.6082292     0.9006755     2.0581718
C          -1.2468979     0.4529353     0.0463497
H          -2.1839760     0.9960866     0.1362864
C          -0.9250123    -0.1973446    -1.1442368
H          -1.6088047    -0.1620643    -1.9884617
C           0.2819536    -0.8932753    -1.2555411
H           0.5295162    -1.3992595    -2.1867611
C           1.1752179    -0.9524199    -0.1810360
C           2.4874756    -1.7070722    -0.2924006
H           2.5673275    -2.1749891    -1.2821424
H           2.5389831    -2.4930864     0.4644327
C           6.1971057     0.4565215    -0.0237388
H           6.6936274    -0.3424885    -0.5916716
H           6.9639833     1.2065544     0.2024596
C           5.0692379     1.0550190    -0.8646035
H           5.4495085     1.5085319    -1.7873043
H           4.5673877     1.8496349    -0.2963385
C           4.0609024    -0.0306626    -1.2317150
H           4.4828609    -0.6805572    -2.0158191
H           3.1515402     0.4204099    -1.6476439
N           3.6667603    -0.8591381    -0.0881415
C           4.3442724    -0.9506031     1.1025551
O           3.9481466    -1.6581061     2.0273603
C           5.6062291    -0.1060262     1.2714741
H           6.3209498    -0.7274013     1.8200408
H           5.3363710     0.7154887     1.9495624
29
021_C12H15NO_0-10-11-23 (-45,) energy =    -596.3089065
C           0.9189505    -0.0165369     0.8278269
H           1.6860192     0.1461608     1.5800559
C          -0.2993942     0.6561733     0.9149940
H          -0.4766003     1.3462000     1.7360243
C          -1.2915304     0.4427725    -0.0453751
H          -2.2407485     0.9674401     0.0233957
C          -1.0547300    -0.4460646    -1.0941771
H          -1.8177506    -0.6152464    -1.8495902
C           0.1685442    -1.1140292    -1.1816600
H           0.3504181    -1.8011105    -2.0057224
C           1.1656283    -0.9131354    -0.2206331
C           2.4773465    -1.6748222    -0.3007455
H           2.5718962    -2.1418636    -1.2912661
H           2.5021853    -2.4705787     0.4486094
C           6.2121732     0.4481976     0.0147824
H           6.6804979    -0.2589104    -0.6840284
H           6.9862525     1.1711185     0.2977768
C           5.0345986     1.1386255    -0.6733689
H           5.3586035     1.7080362    -1.5523201
H           4.5664246     1.8509041     0.0193482
C           4.0072921     0.0994874    -1.1133015
H           4.3937027    -0.4612590    -1.9807167
H           3.0832701     0.5911619    -1.4387026
N           3.6566125    -0.8470791    -0.0487867
C           4.4470251    -1.1398724     1.0405768
O           4.1465707    -2.0099266     1.8533221
C           5.7034701    -0.2958310     1.2522621
H           6.4578071    -0.9675344     1.6727805
H           5.4591613     0.4229571     2.0471158
29
021_C12H15NO_0-10-11-23 (-30,) energy =    -596.3083722
C           0.9800120     0.1752255     0.6377058
H           1.8140579     0.4823452     1.2624102
C          -0.2531983     0.8192126     0.7513155
H          -0.3730054     1.6302087     1.4652042
C          -1.3292848     0.4243302    -0.0450568
H          -2.2892604     0.9258418     0.0435694
C          -1.1617272    -0.6170971    -0.9597507
H          -1.9908530    -0.9291228    -1.5895995
C           0.0741424    -1.2536596    -1.0758613
H           0.1999124    -2.0586025    -1.7974832
C           1.1570029    -0.8723264    -0.2735570
C           2.4773799    -1.6173245    -0.3893854
H           2.5816959    -2.0184408    -1.4080880
H           2.4938307    -2.4650873     0.3016286
C           6.2313562     0.4414859     0.0875505
H           6.6995095    -0.2141844    -0.6598524
H           7.0081115     1.1361739     0.4280767
C           5.0623485     1.1895524    -0.5534431
H           5.3949360     1.8152069    -1.3899679
H           4.5995346     1.8573654     0.1857762
C           4.0259408     0.1945097    -1.0673674
H           4.4131620    -0.3148180    -1.9656800
H           3.1114291     0.7179605    -1.3679964
N           3.6534301    -0.8137274    -0.0676022
C           4.4587088    -1.2171676     0.9774327
O           4.1695943    -2.1670448     1.6984236
C           5.7119240    -0.3906312     1.2630995
H           6.4628656    -1.0904226     1.6411931
H           5.4585267     0.2698591     2.1045678
29
021_C12H15NO_0-10-11-23 (-15,) energy =    -596.3074903
C           1.0294445     0.2875753     0.4685571
H           1.9053421     0.6948065     0.9652470
C          -0.2166794     0.8965363     0.6366373
H          -0.3012107     1.7846766     1.2577696
C          -1.3472913     0.3690752     0.0135860
H          -2.3166128     0.8426148     0.1441698
C          -1.2231949    -0.7724440    -0.7823644
H          -2.0966164    -1.1909081    -1.2759084
C           0.0225151    -1.3742741    -0.9523976
H           0.1121206    -2.2591561    -1.5799570
C           1.1628440    -0.8576562    -0.3220452
C           2.4978032    -1.5622745    -0.5196871
H           2.6038531    -1.8508744    -1.5754920
H           2.5239154    -2.4792825     0.0760539
C           6.2513288     0.4297316     0.1850703
H           6.7466270    -0.2069854    -0.5612136
H           7.0186029     1.1042424     0.5828234
C           5.1209834     1.2121141    -0.4839865
H           5.4981171     1.8581977    -1.2853398
H           4.6343072     1.8639567     0.2543177
C           4.0967610     0.2468900    -1.0736384
H           4.5184734    -0.2408076    -1.9683162
H           3.2036017     0.7916314    -1.3999666
N           3.6667769    -0.7855905    -0.1219939
C           4.4250517    -1.2377715     0.9388825
O           4.0982079    -2.2124751     1.6079569
C           5.6707883    -0.4338419     1.3083339
H           6.3973335    -1.1529411     1.6976079
H           5.3845601     0.2023513     2.1580029
29
021_C12H15NO_0-10-11-23 (0,) energy =    -596.3063852
C           1.0570592     0.3796580     0.3094570
H           1.9527300     0.8761791     0.6709482
C          -0.1978603     0.9486851     0.5436998
H          -0.2678676     1.8962655     1.0718547
C          -1.3545395     0.3055258     0.1060488
H          -2.3305155     0.7472310     0.2883672
C          -1.2488003    -0.9147098    -0.5669569
H          -2.1436766    -1.4274476    -0.9102693
C           0.0040484    -1.4780983    -0.8001648
H           0.0776485    -2.4278957    -1.3268744
C           1.1729337    -0.8409715    -0.3603827
C           2.5165299    -1.4940456    -0.6604839
H           2.6109244    -1.6483149    -1.7448744
H           2.5568285    -2.4768298    -0.1830394
C           6.2771436     0.3897511     0.2615721
H           6.7904172    -0.2491303    -0.4705907
H           7.0422590     1.0367018     0.7064267
C           5.2022477     1.2135143    -0.4482151
H           5.6355032     1.8636298    -1.2172817
H           4.6963870     1.8649562     0.2775788
C           4.1848706     0.2860286    -1.1067156
H           4.6382175    -0.1929303    -1.9904768
H           3.3224544     0.8598628    -1.4649818
N           3.6857568    -0.7546985    -0.1983904
C           4.3727174    -1.2378189     0.8962796
O           3.9830809    -2.2117905     1.5314758
C           5.6190758    -0.4741371     1.3409967
H           6.3060476    -1.2185881     1.7538252
H           5.3077797     0.1567988     2.1857036
29
021_C12H15NO_0-10-11-23 (15,) energy =    -596.3054895
C           0.9980671     0.4506371     0.1486978
H           1.8911983     1.0277400     0.3699382
C          -0.2595510     0.9689405     0.4676762
H          -0.3359563     1.9561472     0.9164297
C          -1.4114338     0.2245026     0.2159414
H          -2.3897411     0.6266418     0.4651497
C          -1.2969080    -1.0467858    -0.3519343
H          -2.1868185    -1.6405846    -0.5442983
C          -0.0403565    -1.5610839    -0.6668638
H           0.0408362    -2.5548960    -1.1030705
C           1.1229763    -0.8196565    -0.4201647
C           2.4659684    -1.4065807    -0.8365504
H           2.5422102    -1.3978963    -1.9325417
H           2.5177286    -2.4486016    -0.5103807
C           6.2424927     0.2974189     0.3430822
H           6.7739823    -0.3577632    -0.3611687
H           7.0047520     0.9049214     0.8448346
C           5.2558252     1.1764350    -0.4262582
H           5.7686320     1.8142622    -1.1556874
H           4.7317482     1.8422217     0.2731240
C           4.2445342     0.3034356    -1.1642032
H           4.7353575    -0.1853784    -2.0221278
H           3.4363410     0.9213128    -1.5726263
N           3.6398904    -0.7215528    -0.3032922
C           4.2270616    -1.2431644     0.8301131
O           3.7466727    -2.2026621     1.4235331
C           5.4754439    -0.5446983     1.3663699
H           6.0983022    -1.3250705     1.8132872
H           5.1391086     0.0918991     2.1970605
29
021_C12H15NO_0-10-11-23 (30,) energy =    -596.3048397
C           0.9618776     0.5550437    -0.0105946
H           1.8171345     1.2220172     0.0545144
C          -0.2972402     1.0053058     0.3899591
H          -0.4156955     2.0248475     0.7481987
C          -1.3994794     0.1512536     0.3342248
H          -2.3795997     0.5008020     0.6475593
C          -1.2311542    -1.1587176    -0.1180210
H          -2.0798325    -1.8368970    -0.1541208
C           0.0297464    -1.6059299    -0.5127740
H           0.1560073    -2.6317287    -0.8525147
C           1.1405984    -0.7552984    -0.4664976
C           2.4837453    -1.2587556    -0.9762488
H           2.5495712    -1.0951555    -2.0598949
H           2.5498898    -2.3358620    -0.8005081
C           6.2564525     0.2554256     0.4633010
H           6.8048966    -0.4209656    -0.2071191
H           7.0091942     0.8231622     1.0226631
C           5.3706098     1.1854215    -0.3666659
H           5.9647703     1.8003960    -1.0527489
H           4.8307881     1.8723592     0.2993025
C           4.3719525     0.3675282    -1.1815489
H           4.8986884    -0.1434431    -2.0046720
H           3.6304709     1.0290061    -1.6446085
N           3.6543815    -0.6238932    -0.3695808
C           4.1388727    -1.1848209     0.7921629
O           3.5710417    -2.1266295     1.3346345
C           5.3792095    -0.5541355     1.4226124
H           5.9301004    -1.3677226     1.9035118
H           5.0170887     0.0929450     2.2341176
29
021_C12H15NO_0-10-11-23 (45,) energy =    -596.3046701
C           0.8855758     0.6289156    -0.2254759
H           1.6712431     1.3700755    -0.3495278
C          -0.3617356     1.0244970     0.2572632
H          -0.5414958     2.0698867     0.4953597
C          -1.3767073     0.0817682     0.4347239
H          -2.3485803     0.3889839     0.8117891
C          -1.1310710    -1.2580182     0.1327044
H          -1.9093645    -2.0024075     0.2794865
C           0.1205338    -1.6498368    -0.3450600
H           0.3124860    -2.6980899    -0.5610139
C           1.1410754    -0.7127637    -0.5350774
C           2.4774901    -1.1530766    -1.1122437
H           2.5377991    -0.8660859    -2.1695231
H           2.5485058    -2.2430638    -1.0599887
C           6.2436649     0.1705997     0.5295651
H           6.7954656    -0.5106390    -0.1331998
H           6.9914569     0.6924158     1.1381383
C           5.4360598     1.1575893    -0.3142479
H           6.0865287     1.7639323    -0.9555598
H           4.8938153     1.8491185     0.3447021
C           4.4427973     0.4050163    -1.1962977
H           4.9849301    -0.1049928    -2.0101015
H           3.7532450     1.1115035    -1.6728556
N           3.6484591    -0.5747194    -0.4446285
C           4.0606261    -1.1912488     0.7159238
O           3.4357422    -2.1313917     1.1957439
C           5.2902040    -0.6263025     1.4245149
H           5.7851428    -1.4722715     1.9102585
H           4.9129559     0.0155336     2.2333260
29
021_C12H15NO_0-10-11-23 (60,) energy =    -596.3050439
C           0.7798266     0.6839005    -0.5151232
H           1.4643390     1.4511762    -0.8700758
C          -0.4484161     1.0604296     0.0273029
H          -0.7098846     2.1135418     0.0932377
C          -1.3413987     0.0871325     0.4819845
H          -2.2995915     0.3788501     0.9039047
C          -0.9929631    -1.2608728     0.3958385
H          -1.6760153    -2.0248361     0.7579902
C           0.2403154    -1.6328220    -0.1424334
H           0.5219470    -2.6814430    -0.1820111
C           1.1359179    -0.6679075    -0.6141360
C           2.4710428    -1.0890397    -1.2059395
H           2.5504720    -0.7380878    -2.2418622
H           2.5352968    -2.1800302    -1.2164369
C           6.2199799     0.1082554     0.5710712
H           6.7760344    -0.5214977    -0.1374847
H           6.9635116     0.5800551     1.2240740
C           5.4205144     1.1589925    -0.2003383
H           6.0767330     1.8132848    -0.7862652
H           4.8719181     1.7966454     0.5057652
C           4.4345124     0.4795943    -1.1479075
H           4.9819286     0.0394684    -1.9981927
H           3.7477348     1.2233556    -1.5680502
N           3.6387726    -0.5607437    -0.4862569
C           4.0335128    -1.2573219     0.6324481
O           3.3997126    -2.2278942     1.0365137
C           5.2571879    -0.7521665     1.3940883
H           5.7456761    -1.6346897     1.8174107
H           4.8740653    -0.1736481     2.2466628
29
021_C12H15NO_0-10-11-23 (75,) energy =    -596.3064888
C           0.6889230     0.6376586    -0.8769066
H           1.2638148     1.3240536    -1.4947145
C          -0.5159657     1.0679576    -0.3202039
H          -0.8568653     2.0861347    -0.4899398
C          -1.2846783     0.1904572     0.4469154
H          -2.2251011     0.5231224     0.8784511
C          -0.8385753    -1.1155954     0.6551996
H          -1.4286518    -1.8034144     1.2553405
C           0.3696058    -1.5412742     0.1012589
H           0.7347892    -2.5464403     0.2904548
C           1.1426975    -0.6744206    -0.6818044
C           2.4806594    -1.1430307    -1.2275703
H           2.6066395    -0.8068276    -2.2645454
H           2.5251908    -2.2329197    -1.2145889
C           6.1913791     0.0723390     0.6008128
H           6.7440376    -0.3996541    -0.2235044
H           6.9396358     0.4913310     1.2837356
C           5.2790838     1.1659103     0.0455245
H           5.8522346     1.9566390    -0.4526098
H           4.7263685     1.6363265     0.8696898
C           4.2933240     0.5720006    -0.9586501
H           4.8147688     0.3461169    -1.9035860
H           3.5179136     1.3096703    -1.1931933
N           3.6392044    -0.6448835    -0.4688918
C           4.1053906    -1.4422615     0.5486781
O           3.5439550    -2.4913571     0.8571564
C           5.3332753    -0.9687263     1.3235052
H           5.8992207    -1.8679488     1.5846198
H           4.9612645    -0.5547700     2.2713041
29
021_C12H15NO_0-10-11-23 (90,) energy =    -596.3085530
C           0.6228237     0.5399853    -1.1362901
H           1.1169259     1.0943981    -1.9318587
C          -0.5677083     1.0279265    -0.5926283
H          -0.9824070     1.9658747    -0.9530081
C          -1.2249180     0.3084155     0.4058019
H          -2.1534017     0.6840272     0.8278523
C          -0.6858294    -0.8989341     0.8577770
H          -1.1937514    -1.4641855     1.6349855
C           0.5042100    -1.3830548     0.3156128
H           0.9391963    -2.3103363     0.6780026
C           1.1685513    -0.6720171    -0.6944674
C           2.4927512    -1.1842548    -1.2294176
H           2.6383078    -0.8453061    -2.2634901
H           2.5129202    -2.2743877    -1.2167486
C           6.1708543     0.0428269     0.6423820
H           6.7165034    -0.2668944    -0.2597731
H           6.9183289     0.4206235     1.3497613
C           5.1563906     1.1273822     0.2804144
H           5.6461832     2.0241188    -0.1167152
H           4.6069831     1.4312168     1.1814803
C           4.1757788     0.6027061    -0.7663412
H           4.6661763     0.5673671    -1.7531052
H           3.3260584     1.2898452    -0.8566379
N           3.6523614    -0.7279667    -0.4480100
C           4.1870901    -1.5993359     0.4689671
O           3.6880800    -2.7018577     0.6891898
C           5.4246764    -1.1505537     1.2434261
H           6.0625019    -2.0343198     1.3425983
H           5.0819611    -0.9072482     2.2588061
29
021_C12H15NO_0-10-11-23 (105,) energy =    -596.3095571
C           0.5077491     0.4459192    -1.3087881
H           0.9168103     0.9018121    -2.2085179
C          -0.6940094     0.9210665    -0.7765308
H          -1.2086123     1.7491283    -1.2572266
C          -1.2305964     0.3309215     0.3672728
H          -2.1660710     0.6965227     0.7826291
C          -0.5620548    -0.7362086     0.9751137
H          -0.9788163    -1.2029310     1.8639893
C           0.6362390    -1.2087504     0.4430444
H           1.1611348    -2.0371232     0.9112864
C           1.1836868    -0.6219032    -0.7082035
C           2.5017677    -1.1304509    -1.2609750
H           2.6528379    -0.7517781    -2.2800773
H           2.5081006    -2.2212262    -1.2926971
C           6.1710423     0.0135825     0.6749357
H           6.7146084    -0.2090077    -0.2537865
H           6.9167920     0.3498852     1.4047056
C           5.1287720     1.0999752     0.4093273
H           5.5948684     2.0366871     0.0821649
H           4.5802164     1.3178563     1.3354450
C           4.1532119     0.6361630    -0.6698973
H           4.6387907     0.6883573    -1.6581987
H           3.2847537     1.3054719    -0.7058598
N           3.6618461    -0.7275853    -0.4541482
C           4.2220438    -1.6560145     0.3874996
O           3.7447433    -2.7808219     0.5312880
C           5.4586109    -1.2421272     1.1829531
H           6.1174407    -2.1157283     1.2052864
H           5.1210782    -1.0898232     2.2176426
29
021_C12H15NO_0-10-11-23 (120,) energy =    -596.3095372
C           0.3914267     0.3319976    -1.4317804
H           0.7183978     0.6778917    -2.4105087
C          -0.8270212     0.7771869    -0.9115509
H          -1.4396326     1.4688134    -1.4841841
C          -1.2524331     0.3354700     0.3405580
H          -2.1990632     0.6798773     0.7486199
C          -0.4575305    -0.5568256     1.0667687
H          -0.7888681    -0.9113810     2.0394538
C           0.7558613    -1.0014089     0.5453438
H           1.3674587    -1.7088128     1.0988485
C           1.1955242    -0.5566611    -0.7107669
C           2.5117731    -1.0586157    -1.2760409
H           2.6720701    -0.6404843    -2.2782487
H           2.4995060    -2.1478861    -1.3559527
C           6.1877957    -0.0443689     0.7164678
H           6.7285675    -0.1925916    -0.2285738
H           6.9346378     0.2420102     1.4661426
C           5.1367079     1.0511072     0.5364469
H           5.5949957     2.0126729     0.2775009
H           4.5903218     1.1961575     1.4780341
C           4.1607806     0.6598020    -0.5703295
H           4.6454568     0.7796396    -1.5531291
H           3.2896690     1.3265333    -0.5617189
N           3.6720695    -0.7168704    -0.4459892
C           4.2439203    -1.7010858     0.3215599