29
021_C12H15NO_10-11-23-24 (-165,) energy =    -596.3039022
C           0.9162968     0.1053079    -1.4081275
H           1.6374310     0.0884515    -2.2224221
C          -0.1954371     0.9430026    -1.4813806
H          -0.3372696     1.5789174    -2.3513428
C          -1.1311096     0.9580523    -0.4433126
H          -2.0007834     1.6070754    -0.5012393
C          -0.9457378     0.1307050     0.6641397
H          -1.6713080     0.1314953     1.4732898
C           0.1728122    -0.7030989     0.7355485
H           0.3109053    -1.3493900     1.5995164
C           1.1186545    -0.7254907    -0.2957743
C           2.3140920    -1.6503042    -0.2329596
H           2.4026088    -2.2360606    -1.1514971
H           2.1741957    -2.3780071     0.5783878
C           6.0915630     0.4090393     0.1864851
H           5.8974092     0.9689437    -0.7387269
H           7.0720787     0.7340593     0.5536479
C           4.9923892     0.7060998     1.2055277
H           4.9816803     1.7631700     1.4958582
H           5.1756454     0.1229744     2.1185993
C           3.6238737     0.3501724     0.6268425
H           3.3126345     1.1259710    -0.0862107
H           2.8712761     0.3442298     1.4237416
N           3.6079975    -0.9596867    -0.0428018
C           4.7205070    -1.7231275    -0.3019834
O           4.6252397    -2.8798525    -0.7070737
C           6.0977070    -1.0951136    -0.0928853
H           6.6915796    -1.3535282    -0.9758356
H           6.5567350    -1.6341065     0.7469435
29
021_C12H15NO_10-11-23-24 (-150,) energy =    -596.3057673
C           1.0123221     0.0474891    -1.3642639
H           1.8025787    -0.0013584    -2.1100304
C          -0.0828639     0.8861782    -1.5629955
H          -0.1448328     1.4896308    -2.4649218
C          -1.1033935     0.9456286    -0.6094922
H          -1.9593884     1.5966936    -0.7655250
C          -1.0173633     0.1630329     0.5414325
H          -1.8066418     0.2014261     1.2876464
C           0.0857648    -0.6712340     0.7399771
H           0.1482668    -1.2796739     1.6396447
C           1.1120925    -0.7406383    -0.2078106
C           2.2900039    -1.6722330    -0.0104762
H           2.3653438    -2.3980755    -0.8230508
H           2.1445238    -2.2479761     0.9160864
C           6.0353732     0.4586011     0.1101237
H           5.7044749     1.0881766    -0.7272788
H           7.0443694     0.7926741     0.3785941
C           5.0686647     0.6153056     1.2830714
H           5.0624006     1.6402032     1.6719395
H           5.3867808    -0.0394767     2.1060268
C           3.6502863     0.2530702     0.8462344
H           3.2183455     1.0792682     0.2660917
H           3.0069429     0.1235273     1.7263037
N           3.5867811    -0.9795837     0.0448496
C           4.6825410    -1.6799330    -0.4075424
O           4.5806844    -2.7996488    -0.9024810
C           6.0537910    -1.0135025    -0.3055719
H           6.5436116    -1.1685597    -1.2726003
H           6.6280791    -1.6044439     0.4207255
29
021_C12H15NO_10-11-23-24 (-135,) energy =    -596.3073524
C           1.0611508    -0.0289500    -1.3633037
H           1.8754532    -0.1299596    -2.0770731
C          -0.0169298     0.8071977    -1.6480453
H          -0.0411496     1.3565195    -2.5856920
C          -1.0678959     0.9343083    -0.7350336
H          -1.9099789     1.5840693    -0.9579917
C          -1.0296746     0.2213523     0.4628041
H          -1.8420421     0.3136514     1.1789689
C           0.0558423    -0.6109985     0.7473123
H           0.0815533    -1.1642348     1.6838463
C           1.1112332    -0.7482403    -0.1600588
C           2.2743928    -1.6758239     0.1333573
H           2.3535971    -2.4650649    -0.6174628
H           2.1118225    -2.1617962     1.1070156
C           5.9965337     0.5022546     0.0970670
H           5.5942733     1.1963537    -0.6536875
H           7.0219841     0.8260318     0.3103054
C           5.1283390     0.5485798     1.3538017
H           5.1384025     1.5418179     1.8175990
H           5.5224762    -0.1585708     2.0964643
C           3.6856990     0.1885744     1.0053188
H           3.1996810     1.0389903     0.5075558
H           3.1118418    -0.0038951     1.9216421
N           3.5754337    -0.9980008     0.1455395
C           4.6233983    -1.6021008    -0.5121543
O           4.4879376    -2.6500716    -1.1386030
C           5.9930766    -0.9278866    -0.4465632
H           6.4161722    -0.9922559    -1.4540930
H           6.6196084    -1.5723283     0.1854320
29
021_C12H15NO_10-11-23-24 (-120,) energy =    -596.3084829
C           1.0705087    -0.1643912    -1.4070437
H           1.8675908    -0.3628741    -2.1196638
C           0.0117374     0.6719198    -1.7561169
H          -0.0139400     1.1283136    -2.7423115
C          -1.0193374     0.9178046    -0.8444376
H          -1.8461176     1.5681214    -1.1175539
C          -0.9825299     0.3219068     0.4157756
H          -1.7800864     0.5064892     1.1308235
C           0.0829285    -0.5125215     0.7637600
H           0.1070951    -0.9754423     1.7482486
C           1.1186499    -0.7662942    -0.1408721
C           2.2712805    -1.6842214     0.2223178
H           2.3592128    -2.5048236    -0.4925227
H           2.0944545    -2.1149257     1.2180931
C           5.9453392     0.5761641     0.1087751
H           5.4779572     1.3331232    -0.5361234
H           6.9801211     0.8978002     0.2751450
C           5.1769430     0.4827560     1.4265964
H           5.2022438     1.4302518     1.9774146
H           5.6418542    -0.2773971     2.0690764
C           3.7202307     0.1131488     1.1565194
H           3.1811937     0.9845717     0.7577160
H           3.2189309    -0.1606250     2.0944408
N           3.5741836    -1.0120696     0.2259903
C           4.5510796    -1.4721459    -0.6273456
O           4.3620624    -2.4107823    -1.3974342
C           5.9181935    -0.7913342    -0.5777865
H           6.2767509    -0.7457618    -1.6106349
H           6.5879664    -1.4877203    -0.0540356
29
021_C12H15NO_10-11-23-24 (-105,) energy =    -596.3093844
C           1.0666590    -0.3211971    -1.4507686
H           1.8332222    -0.6362453    -2.1542092
C           0.0312244     0.5159395    -1.8624106
H          -0.0072454     0.8602316    -2.8927315
C          -0.9605688     0.9057717    -0.9572541
H          -1.7690221     1.5564550    -1.2801014
C          -0.9100315     0.4519817     0.3604133
H          -1.6782468     0.7483137     1.0700441
C           0.1307002    -0.3850790     0.7715626
H           0.1647753    -0.7392996     1.8000511
C           1.1277004    -0.7800027    -0.1260400
C           2.2633795    -1.6898183     0.3069057
H           2.3526083    -2.5412506    -0.3699122
H           2.0689619    -2.0672866     1.3193473
C           5.9071903     0.6253712     0.1588749
H           5.3939128     1.4421367    -0.3672425
H           6.9513414     0.9358321     0.2823783
C           5.2375659     0.3902963     1.5127131
H           5.2931665     1.2809485     2.1495079
H           5.7549314    -0.4203989     2.0433994
C           3.7693087     0.0215713     1.3132328
H           3.1951726     0.9136420     1.0212261
H           3.3368264    -0.3332522     2.2578729
N           3.5750379    -1.0316860     0.3111742
C           4.4560743    -1.3290054    -0.7023297
O           4.1845754    -2.1327066    -1.5922835
C           5.8298021    -0.6610441    -0.6674365
H           6.1230238    -0.5036965    -1.7095125
H           6.5262375    -1.4089350    -0.2624431
29
021_C12H15NO_10-11-23-24 (-90,) energy =    -596.3093877
C           1.0293188    -0.4954579    -1.4988589
H           1.7488779    -0.9239383    -2.1899630
C           0.0146638     0.3428673    -1.9591145
H          -0.0578007     0.5669313    -3.0203735
C          -0.9115372     0.8881728    -1.0655987
H          -1.7032822     1.5385493    -1.4282564
C          -0.8178750     0.5888566     0.2933499
H          -1.5357635     1.0046668     0.9957589
C           0.1999615    -0.2499858     0.7535802
H           0.2639837    -0.4864704     1.8140756
C           1.1339326    -0.7996813    -0.1325726
C           2.2421702    -1.7078062     0.3736848
H           2.3204518    -2.5945869    -0.2581467
H           2.0208008    -2.0301024     1.3978762
C           5.8540776     0.6592275     0.2162496
H           5.2953814     1.5185931    -0.1795764
H           6.9020635     0.9717646     0.2931820
C           5.2917232     0.2723087     1.5840555
H           5.3788764     1.0962188     2.3020763
H           5.8602130    -0.5746457     1.9912320
C           3.8194713    -0.1107474     1.4549904
H           3.2129239     0.7904467     1.2758414
H           3.4599024    -0.5503467     2.3941107
N           3.5758119    -1.0869687     0.3862248
C           4.3539687    -1.2097506    -0.7414641
O           4.0077721    -1.8932480    -1.7033128
C           5.7240181    -0.5330618    -0.7355480
H           5.9393410    -0.2619815    -1.7730348
H           6.4519618    -1.3103192    -0.4623854
29
021_C12H15NO_10-11-23-24 (-75,) energy =    -596.3075618
C           0.8985989    -0.7522260    -1.5536910
H           1.5055035    -1.3515999    -2.2230202
C          -0.1003400     0.0827092    -2.0548994
H          -0.2821709     0.1172968    -3.1260756
C          -0.8669802     0.8683111    -1.1909934
H          -1.6455545     1.5154794    -1.5865648
C          -0.6327977     0.8116990     0.1832152
H          -1.2296968     1.4114205     0.8656692
C           0.3653939    -0.0260260     0.6842382
H           0.5311734    -0.0802587     1.7586680
C           1.1464469    -0.8122343    -0.1744287
C           2.2296776    -1.7139392     0.3958156
H           2.2944414    -2.6308984    -0.1949835
H           1.9841131    -1.9903172     1.4263198
C           5.7974954     0.7219415     0.3294498
H           5.1913780     1.6117286     0.1098481
H           6.8418456     1.0528719     0.3705855
C           5.3548949     0.1215889     1.6636384
H           5.4809985     0.8345025     2.4869753
H           5.9708591    -0.7571608     1.8974690
C           3.8856099    -0.2856697     1.5903247
H           3.2524615     0.6155959     1.5729478
H           3.6063799    -0.8522532     2.4875029
N           3.5834308    -1.1260969     0.4227293
C           4.2626838    -1.0378078    -0.7714287
O           3.8570832    -1.5898477    -1.7914591
C           5.6133831    -0.3224007    -0.7746299
H           5.7342493     0.1035532    -1.7746953
H           6.3782916    -1.1061299    -0.6783656
29
021_C12H15NO_10-11-23-24 (-60,) energy =    -596.3042638
C           0.7372518    -0.9977326    -1.5351806
H           1.2242406    -1.7644000    -2.1272305
C          -0.2650125    -0.2052863    -2.0951492
H          -0.5719955    -0.3760321    -3.1237409
C          -0.8692282     0.8049414    -1.3439573
H          -1.6494337     1.4210743    -1.7834390
C          -0.4701978     1.0148044    -0.0232394
H          -0.9415279     1.7911701     0.5740906
C           0.5273257     0.2152143     0.5365592
H           0.8161632     0.3693735     1.5746008
C           1.1488813    -0.7943506    -0.2122898
C           2.2199804    -1.6632467     0.4276506
H           2.2626770    -2.6226840    -0.0978623
H           1.9620526    -1.8700040     1.4704364
C           5.7940178     0.7645378     0.4716227
H           5.1715859     1.6700153     0.4832471
H           6.8380827     1.0988544     0.4720882
C           5.4832694    -0.0808966     1.7062529
H           5.6971530     0.4650311     2.6327372
H           6.1109708    -0.9821798     1.7076793
C           4.0105919    -0.4806201     1.7042052
H           3.3915621     0.4071241     1.9115600
H           3.8151918    -1.2001032     2.5089946
N           3.5882581    -1.1008761     0.4387100
C           4.1662360    -0.8097272    -0.7765578
O           3.6864154    -1.2175309    -1.8302170
C           5.4987257    -0.0595720    -0.7838194
H           5.5014471     0.5503445    -1.6919795
H           6.2789748    -0.8209589    -0.9239112
29
021_C12H15NO_10-11-23-24 (-45,) energy =    -596.3004755
C           0.0863889     0.7731930    -0.0662518
H           0.1895943     1.8547779    -0.0883283
C          -1.0871017     0.1943137     0.4163013
H          -1.9010664     0.8297821     0.7553538
C          -1.2119282    -1.1947890     0.4756202
H          -2.1248905    -1.6464403     0.8547257
C          -0.1560754    -2.0005571     0.0455028
H          -0.2445280    -3.0833462     0.0845671
C           1.0115439    -1.4164027    -0.4457114
H           1.8262540    -2.0514316    -0.7887400
C           1.1485337    -0.0237380    -0.5019412
C           2.3953107     0.6004452    -1.1049273
H           2.2410490     1.6845588    -1.1815990
H           2.5357451     0.2252615    -2.1237777
C           5.8906411    -0.8818619     0.9337866
H           5.4659094    -1.8931582     0.8662179
H           6.8521958    -0.9772088     1.4515856
C           6.0734040    -0.3123300    -0.4726213
H           6.7712954    -0.9144692    -1.0662186
H           6.4917683     0.7012753    -0.4098134
C           4.7296680    -0.2727748    -1.1948659
H           4.4336821    -1.2979757    -1.4717664
H           4.8248259     0.2914613    -2.1314975
N           3.6654418     0.3511444    -0.3956819
C           3.6902486     0.4784076     0.9741312
O           2.7618856     0.9922966     1.5881476
C           4.9505553     0.0352347     1.7188486
H           4.6084980    -0.4204401     2.6532099
H           5.4772810     0.9560356     2.0054921
29
021_C12H15NO_10-11-23-24 (-30,) energy =    -596.2974217
C           0.0566255     0.7873947    -0.2198170
H           0.2045465     1.8500499    -0.3962191
C          -1.1657773     0.3284870     0.2714624
H          -1.9674286     1.0358317     0.4674566
C          -1.3566994    -1.0318130     0.5163280
H          -2.3076503    -1.3907151     0.9010392
C          -0.3180591    -1.9301095     0.2611516
H          -0.4586117    -2.9923975     0.4442596
C           0.8983276    -1.4677803    -0.2379096
H           1.7011625    -2.1738810    -0.4404880
C           1.1039297    -0.1024340    -0.4725304
C           2.3926176     0.3826680    -1.1078450
H           2.2839353     1.4470527    -1.3618773
H           2.5351309    -0.1496024    -2.0564534
C           6.0305335    -0.8404939     0.8479300
H           5.7537792    -1.8801870     0.6241556
H           6.9925311    -0.8754157     1.3725064
C           6.1378905    -0.0495327    -0.4544626
H           6.9217391    -0.4468856    -1.1098825
H           6.4006597     0.9933945    -0.2315755
C           4.8084341    -0.1014951    -1.2013875
H           4.6795827    -1.0982163    -1.6542582
H           4.8172316     0.6197996    -2.0299587
N           3.6469011     0.1974117    -0.3525162
C           3.6605335     0.1974627     1.0240070
O           2.6877459     0.5288262     1.6905051
C           4.9657027    -0.1843705     1.7283275
H           4.6775606    -0.8165328     2.5742924
H           5.3587071     0.7435405     2.1657008
29
021_C12H15NO_10-11-23-24 (-15,) energy =    -596.2953204
C           0.1219466     0.7845266    -0.2199363
H           0.3752352     1.8264075    -0.4013868
C          -1.1345416     0.4538180     0.2875196
H          -1.8568312     1.2395086     0.4934026
C          -1.4628885    -0.8804748     0.5298757
H          -2.4416309    -1.1400070     0.9246352
C          -0.5284118    -1.8815208     0.2549747
H          -0.7779159    -2.9243826     0.4332349
C           0.7231607    -1.5465998    -0.2577000
H           1.4446296    -2.3313049    -0.4757905
C           1.0687918    -0.2088549    -0.4859177
C           2.3916563     0.1421188    -1.1347122
H           2.3237716     1.1576875    -1.5520366
H           2.5434301    -0.5301570    -1.9907030
C           6.1462969    -0.6986529     0.8212654
H           6.0185013    -1.7545263     0.5447739
H           7.1039165    -0.6237148     1.3497895
C           6.1386929     0.1635400    -0.4388803
H           6.9661262    -0.0890114    -1.1123374
H           6.2568740     1.2202374    -0.1635442
C           4.8251003    -0.0334996    -1.1889347
H           4.8306009    -1.0153330    -1.6909589
H           4.7309359     0.7203650    -1.9829814
N           3.6328676     0.0619853    -0.3360030
C           3.6465717    -0.0242618     1.0387315
O           2.6433770     0.1062019     1.7281803
C           5.0000878    -0.2431693     1.7248016
H           4.8103489    -0.9448154     2.5430152
H           5.2557615     0.7135072     2.2007465
29
021_C12H15NO_10-11-23-24 (0,) energy =    -596.2944365
C           0.2677354     0.7496030    -0.1406318
H           0.6468370     1.7612498    -0.2665690
C          -1.0112643     0.5480375     0.3759340
H          -1.6255586     1.4028579     0.6468016
C          -1.5036409    -0.7479714     0.5395687
H          -2.5019189    -0.9067944     0.9387685
C          -0.7102519    -1.8382245     0.1777565
H          -1.0890013    -2.8505407     0.2928382
C           0.5675271    -1.6313229    -0.3396304
H           1.1803531    -2.4841172    -0.6234392
C           1.0777258    -0.3368227    -0.4886935
C           2.4262054    -0.1126540    -1.1393622
H           2.3963108     0.8377969    -1.6914084
H           2.5797549    -0.8979122    -1.8946234
C           6.2464461    -0.5376427     0.8603713
H           6.2779936    -1.5982373     0.5742027
H           7.1764015    -0.3286507     1.4022358
C           6.1285998     0.3254015    -0.3932429
H           6.9855938     0.1904004    -1.0636972
H           6.1021145     1.3864453    -0.1108042
C           4.8564263    -0.0391621    -1.1513655
H           4.9879054    -1.0161799    -1.6465097
H           4.6766718     0.6910720    -1.9520812
N           3.6522676    -0.0842587    -0.3109489
C           3.6681519    -0.2515626     1.0570509
O           2.6562794    -0.3406555     1.7398074
C           5.0353800    -0.2655293     1.7531417
H           4.9473293    -0.9914464     2.5668956
H           5.1389692     0.7176274     2.2332407
29
021_C12H15NO_10-11-23-24 (15,) energy =    -596.2949997
C           0.4342263     0.7103749    -0.0556484
H           0.9443682     1.6694828    -0.1138241
C          -0.8481428     0.6400312     0.4846830
H          -1.3337807     1.5438182     0.8437004
C          -1.5112178    -0.5871538     0.5565585
H          -2.5135515    -0.6430678     0.9729119
C          -0.8823605    -1.7390047     0.0823191
H          -1.3931179    -2.6973959     0.1274487
C           0.4031914    -1.6642050    -0.4534892
H           0.8899978    -2.5655109    -0.8187742
C           1.0816023    -0.4432052    -0.5149174
C           2.4338546    -0.3459701    -1.1893197
H           2.4239766     0.5225225    -1.8622229
H           2.5682172    -1.2286908    -1.8336184
C           6.2758013    -0.3128172     0.8412126
H           6.4640768    -1.3594748     0.5639893
H           7.1566935     0.0306967     1.3963433
C           6.0576343     0.5189029    -0.4202285
H           6.9327956     0.4934079    -1.0803381
H           5.8892556     1.5688864    -0.1455599
C           4.8514974    -0.0098397    -1.1908706
H           5.1129953    -0.9640418    -1.6791911
H           4.5912428     0.6881174    -1.9971655
N           3.6525039    -0.2039541    -0.3635957
C           3.6889643    -0.4478219     0.9938823
O           2.7106983    -0.7883423     1.6453111
C           5.0233014    -0.2159711     1.7132144
H           5.0411301    -0.9232965     2.5469575
H           4.9595699     0.7864655     2.1603176
29
021_C12H15NO_10-11-23-24 (30,) energy =    -596.2971245
C           0.6228708     0.6449692    -0.0134804
H           1.2485758     1.5346942    -0.0378403
C          -0.6513694     0.7091107     0.5468222
H          -1.0153221     1.6484123     0.9554395
C          -1.4621956    -0.4279676     0.5750679
H          -2.4581171    -0.3788719     1.0073536
C          -0.9865047    -1.6259489     0.0410381
H          -1.6100742    -2.5160942     0.0566715
C           0.2931825    -1.6874656    -0.5111305
H           0.6624930    -2.6266491    -0.9160216
C           1.1153690    -0.5577623    -0.5354824
C           2.4602981    -0.5973069    -1.2325898
H           2.4665190     0.1633126    -2.0236930
H           2.5665100    -1.5692877    -1.7390189
C           6.2572684    -0.1363071     0.8428171
H           6.6045535    -1.1347934     0.5424536
H           7.0647916     0.3153537     1.4310300
C           5.9505169     0.6941892    -0.4016942
H           6.8357073     0.8106408    -1.0382748
H           5.6304420     1.7015702    -0.1032933
C           4.8463011     0.0287355    -1.2190298
H           5.2468526    -0.8689735    -1.7198408
H           4.5152138     0.7062681    -2.0156284
N           3.6672349    -0.3411479    -0.4235877
C           3.7246843    -0.6649507     0.9170031
O           2.8058432    -1.2167029     1.5076955
C           4.9851546    -0.2547122     1.6848044
H           5.0920160    -0.9756852     2.4998021
H           4.7598258     0.7140112     2.1537936
29
021_C12H15NO_10-11-23-24 (45,) energy =    -596.3001869
C           0.7485641     0.6144062    -0.0730726
H           1.4465549     1.4473168    -0.1246508
C          -0.5147749     0.8030264     0.4856203
H          -0.7983669     1.7819932     0.8638699
C          -1.4166645    -0.2611874     0.5518791
H          -2.4033606    -0.1158334     0.9836849
C          -1.0417443    -1.5124433     0.0607515
H          -1.7346315    -2.3483280     0.1121326
C           0.2269840    -1.6986173    -0.4886652
H           0.5201254    -2.6799638    -0.8535027
C           1.1370298    -0.6406378    -0.5576734
C           2.4771738    -0.8167931    -1.2477077
H           2.5042178    -0.1876560    -2.1448892
H           2.5629599    -1.8584882    -1.5906483
C           6.1967998    -0.0216598     0.8530105
H           6.6686055    -0.9414253     0.4797491
H           6.9398061     0.4805438     1.4836293
C           5.7910459     0.8589881    -0.3281270
H           6.6581359     1.1396621    -0.9377686
H           5.3399132     1.7890614     0.0431173
C           4.7877457     0.1239230    -1.2140472
H           5.3058183    -0.6725001    -1.7743744
H           4.3752177     0.8133706    -1.9600999
N           3.6662185    -0.4529446    -0.4601544
C           3.7583329    -0.8695859     0.8514969
O           2.9067465    -1.5814179     1.3688600
C           4.9492957    -0.3677666     1.6698211
H           5.1468278    -1.1315840     2.4269297
H           4.6003694     0.5238554     2.2105944
29
021_C12H15NO_10-11-23-24 (60,) energy =    -596.3031260
C           0.7034708     0.6544250    -0.4589508
H           1.3472397     1.4722730    -0.7774858
C          -0.5380035     0.9372865     0.1112382
H          -0.8550064     1.9697583     0.2348511
C          -1.3745000    -0.1063190     0.5116430
H          -2.3445836     0.1091946     0.9519615
C          -0.9574758    -1.4281084     0.3441332
H          -1.5995306    -2.2460089     0.6605725
C           0.2886153    -1.7054634    -0.2181818
H           0.6245158    -2.7329155    -0.3203524
C           1.1318086    -0.6685098    -0.6278797
C           2.4666696    -0.9560273    -1.2951973
H           2.5393391    -0.3958256    -2.2325293
H           2.5159003    -2.0224408    -1.5482008
C           6.1294596    -0.0880367     0.8611197
H           6.6968796    -0.8418032     0.2974400
H           6.8292300     0.3669306     1.5718903
C           5.5703375     0.9564952    -0.1049098
H           6.3718531     1.4721454    -0.6470665
H           5.0150720     1.7189181     0.4577040
C           4.6426192     0.2930566    -1.1207360
H           5.2429097    -0.2779832    -1.8483223
H           4.1051933     1.0603193    -1.6900419
N           3.6514388    -0.5942267    -0.4980352
C           3.8077423    -1.2052991     0.7232004
O           3.0289017    -2.0703163     1.1113334
C           4.9694883    -0.7528832     1.6066996
H           5.2892436    -1.6319053     2.1737169
H           4.5450639    -0.0510504     2.3388479
29
021_C12H15NO_10-11-23-24 (75,) energy =    -596.3062908
C           0.5835655     0.5792767    -1.0170029
H           1.0688661     1.2211772    -1.7501514
C          -0.6236211     0.9831773    -0.4439979
H          -1.0634357     1.9376258    -0.7220026
C          -1.2669989     0.1543054     0.4754329
H          -2.2094834     0.4613112     0.9215154
C          -0.6971673    -1.0756624     0.8123335
H          -1.1971228    -1.7292301     1.5226710
C           0.5110279    -1.4769472     0.2418037
H           0.9645022    -2.4225910     0.5152111
C           1.1702273    -0.6481586    -0.6776220
C           2.4858477    -1.0590634    -1.3187718
H           2.6019279    -0.5661722    -2.2889409
H           2.4898347    -2.1393741    -1.4894828
C           6.1239883    -0.1075381     0.8042648
H           6.7154408    -0.5874376     0.0123034
H           6.8358131     0.2632837     1.5509105
C           5.3013218     1.0363120     0.2125674
H           5.9396039     1.8203533    -0.2112836
H           4.7025909     1.5017686     1.0070492
C           4.3777442     0.5122836    -0.8857862
H           4.9548071     0.3440846    -1.8087582
H           3.6181087     1.2684901    -1.1188104
N           3.6900999    -0.7364467    -0.5281335
C           3.9705715    -1.5090431     0.5687272
O           3.3077802    -2.5067870     0.8477935
C           5.1661248    -1.1193912     1.4363512
H           5.6657929    -2.0545548     1.7078184
H           4.7519467    -0.7133159     2.3696539
29
021_C12H15NO_10-11-23-24 (90,) energy =    -596.3089575
C           0.5065354     0.4742551    -1.2512218
H           0.9077395     0.9691114    -2.1338321
C          -0.7015510     0.9126970    -0.7031440
H          -1.2289175     1.7491214    -1.1547022
C          -1.2280673     0.2738413     0.4189082
H          -2.1686866     0.6097631     0.8476237
C          -0.5427092    -0.8045951     0.9858709
H          -0.9522837    -1.3107771     1.8563914
C           0.6623268    -1.2422207     0.4382398
H           1.1982895    -2.0795928     0.8740495
C           1.2023402    -0.6026986    -0.6886057
C           2.5183521    -1.0672423    -1.2877138
H           2.6625838    -0.6145766    -2.2753602
H           2.5141311    -2.1532283    -1.4062159
C           6.1612960    -0.0957702     0.7937845
H           6.7356086    -0.3943375    -0.0941561
H           6.8892280     0.2229258     1.5489446
C           5.2087914     1.0429467     0.4294205
H           5.7513659     1.9359073     0.0979505
H           4.6252919     1.3293669     1.3146690
C           4.2657661     0.6010189    -0.6877017
H           4.8004273     0.6074907    -1.6509868
H           3.4345942     1.3116333    -0.7791492
N           3.6979867    -0.7349761    -0.4734697
C           4.1160300    -1.6374416     0.4698790
O           3.5413649    -2.7115585     0.6460355
C           5.3380784    -1.2769832     1.3123691
H           5.9315415    -2.1924334     1.4012925
H           4.9624163    -1.0600656     2.3219448
29
021_C12H15NO_10-11-23-24 (105,) energy =    -596.3096487
C           0.4728936     0.3895952    -1.3811982
H           0.8515029     0.7896043    -2.3199294
C          -0.7382792     0.8591910    -0.8651734
H          -1.2929654     1.6258501    -1.4000508
C          -1.2312967     0.3440431     0.3329811
H          -2.1731703     0.7065185     0.7363961
C          -0.5107831    -0.6443387     1.0109958
H          -0.8944836    -1.0545936     1.9416210
C           0.6957896    -1.1122385     0.4943395
H           1.2554525    -1.8869795     1.0118974
C           1.2013560    -0.5974060    -0.7093213
C           2.5193337    -1.1134444    -1.2557843
H           2.6871544    -0.7177456    -2.2659865
H           2.5099121    -2.2037368    -1.3088958
C           6.1818088    -0.0470888     0.7383033
H           6.7300309    -0.2106469    -0.1999006
H           6.9221497     0.2557246     1.4879967
C           5.1282850     1.0411009     0.5302651
H           5.5851723     1.9991242     0.2561784
H           4.5746854     1.2020615     1.4650100
C           4.1613992     0.6252475    -0.5755578
H           4.6537346     0.7245361    -1.5569663
H           3.2899111     1.2913392    -0.5877250
N           3.6733198    -0.7485033    -0.4246035
C           4.2467324    -1.7179342     0.3605090
O           3.7776528    -2.8518533     0.4465950
C           5.4834580    -1.3379781     1.1729491
H           6.1514631    -2.2043188     1.1408983
H           5.1491184    -1.2515688     2.2161990
29
021_C12H15NO_10-11-23-24 (120,) energy =    -596.3091948
C           0.4225644     0.3048814    -1.4661327
H           0.7846725     0.5947070    -2.4505550
C          -0.7891103     0.8170395    -0.9940902
H          -1.3616502     1.5052110    -1.6105875
C          -1.2588642     0.4473879     0.2656360
H          -2.2004197     0.8443343     0.6357923
C          -0.5137010    -0.4388295     1.0495452
H          -0.8775724    -0.7354948     2.0299089
C           0.6927166    -0.9495783     0.5747512
H           1.2682050    -1.6458242     1.1798643
C           1.1750596    -0.5828373    -0.6903677
C           2.4833425    -1.1579073    -1.1989366
H           2.6630931    -0.8135862    -2.2275425
H           2.4516411    -2.2493115    -1.2068173
C           6.1825836    -0.0230599     0.7010354
H           6.6952144    -0.0447598    -0.2707857
H           6.9347668     0.2563490     1.4480978
C           5.0447046     0.9966555     0.6525626
H           5.4180293     2.0069919     0.4482775
H           4.5342849     1.0299307     1.6243965
C           4.0488917     0.6130397    -0.4383840
H           4.4900388     0.8108125    -1.4298802
H           3.1460061     1.2299596    -0.3643672
N           3.6355545    -0.7920597    -0.3688123
C           4.3655307    -1.7999301     0.2199012