26
090_C11H13NO_1-0-20-17 (-165,) energy =    -556.9919669
C           3.8446047     2.0691456    -0.3441738
C           2.6211098     2.7333309    -0.5255727
H           2.6244905     3.7764660    -0.8230677
C           1.4104782     2.0786231    -0.3110323
H           0.4762423     2.6148408    -0.4566273
C           1.3947155     0.7402769     0.0888642
H           0.4504843     0.2279272     0.2538851
C           2.6014538     0.0683676     0.2712488
H           2.6052909    -0.9738182     0.5804240
C           3.8148518     0.7283138     0.0570734
C           7.8796305     3.6741527     0.2708085
H           4.7386132     0.1778897     0.2041624
H           8.2441074     3.0593182     1.1092334
H           8.6501086     4.4264844     0.0641386
C           7.6469751     2.7863095    -0.9489634
H           8.5299420     2.1571148    -1.1089594
H           7.5240231     3.4095873    -1.8444956
C           6.3974756     1.9306471    -0.7309537
H           6.5349585     1.3348976     0.1812444
H           6.2600145     1.2207251    -1.5545627
C           5.1468920     2.8189210    -0.6035681
H           5.0282279     3.3403158    -1.5671168
C           5.3528186     3.9783668     0.4040079
N           6.6475024     4.3620780     0.6437866
H           6.7097329     5.1198019     1.3139764
O           4.4196475     4.5905723     0.9059973
26
090_C11H13NO_1-0-20-17 (-150,) energy =    -556.9919815
C           3.8187198     2.0914985    -0.3355226
C           2.5940019     2.6691123    -0.6980850
H           2.5877264     3.6603489    -1.1430223
C           1.3906687     1.9995387    -0.4852083
H           0.4540714     2.4686799    -0.7751972
C           1.3883600     0.7312460     0.0988195
H           0.4518456     0.2049338     0.2634899
C           2.5986136     0.1464671     0.4689071
H           2.6106056    -0.8395052     0.9265190
C           3.8023756     0.8220178     0.2545802
C           7.8596966     3.6305685     0.2916509
H           4.7300461     0.3443031     0.5551298
H           8.2415830     2.9267114     1.0485056
H           8.6300838     4.3974640     0.1477452
C           7.5919993     2.8816150    -1.0119914
H           8.4711418     2.2788473    -1.2670133
H           7.4416651     3.6007249    -1.8280671
C           6.3504370     2.0005798    -0.8550836
H           6.5216431     1.3010429    -0.0267976
H           6.1821564     1.3918543    -1.7508054
C           5.1061918     2.8661267    -0.5827754
H           4.9420507     3.4771769    -1.4839923
C           5.3409868     3.9213323     0.5251071
N           6.6423465     4.2802495     0.7685685
H           6.7267995     4.9646873     1.5112506
O           4.4166401     4.4754079     1.1036729
26
090_C11H13NO_1-0-20-17 (-135,) energy =    -556.9922401
C           3.7970355     2.1420326    -0.3279193
C           2.5862905     2.5984323    -0.8619370
H           2.5743734     3.5187839    -1.4409008
C           1.3986362     1.8954370    -0.6594704
H           0.4714554     2.2690530    -1.0862430
C           1.4017148     0.7188321     0.0904260
H           0.4789122     0.1673457     0.2497613
C           2.5996432     0.2581892     0.6384970
H           2.6134226    -0.6528978     1.2312388
C           3.7846991     0.9650139     0.4320273
C           7.8689119     3.5648690     0.2898552
H           4.7036219     0.5946820     0.8786851
H           8.2546290     2.7856548     0.9669424
H           8.6538870     4.3243675     0.1936364
C           7.5470610     2.9462797    -1.0687684
H           8.4049336     2.3529499    -1.4055706
H           7.3904891     3.7420205    -1.8090494
C           6.2900809     2.0797249    -0.9609428
H           6.4642972     1.2895844    -0.2193045
H           6.0777341     1.5746700    -1.9102240
C           5.0733393     2.9366951    -0.5570158
H           4.8798775     3.6325631    -1.3872417
C           5.3669227     3.8683451     0.6412171
N           6.6819350     4.1951925     0.8610473
H           6.8048243     4.7927304     1.6705415
O           4.4733405     4.3598573     1.3160719
26
090_C11H13NO_1-0-20-17 (-120,) energy =    -556.9928284
C           3.7759904     2.1934643    -0.2962225
C           2.6066455     2.5163481    -0.9922454
H           2.6095829     3.3633826    -1.6746534
C           1.4383931     1.7709517    -0.8220731
H           0.5419024     2.0405165    -1.3743848
C           1.4220883     0.6880277     0.0563346
H           0.5146669     0.1057871     0.1928747
C           2.5801094     0.3607395     0.7653330
H           2.5762511    -0.4751255     1.4601976
C           3.7437632     1.1076494     0.5897222
C           7.8902947     3.5000405     0.2585846
H           4.6324168     0.8500376     1.1609816
H           8.2872188     2.6650531     0.8583400
H           8.6872936     4.2493500     0.1839622
C           7.4972904     2.9913031    -1.1266850
H           8.3249809     2.4048918    -1.5421214
H           7.3321565     3.8433110    -1.7993995
C           6.2226276     2.1498294    -1.0318054
H           6.3966282     1.2974773    -0.3615448
H           5.9562849     1.7281954    -2.0078086
C           5.0457741     2.9999606    -0.5068807
H           4.8316744     3.7652086    -1.2677519
C           5.4137232     3.8146168     0.7518673
N           6.7436101     4.1084820     0.9285890
H           6.9159221     4.6302828     1.7804279
O           4.5647089     4.2500339     1.5170297
26
090_C11H13NO_1-0-20-17 (-105,) energy =    -556.9932449
C           3.7603714     2.2407030    -0.2447548
C           2.6610056     2.4285925    -1.0887744
H           2.7014122     3.2001598    -1.8548292
C           1.5128699     1.6441264    -0.9597693
H           0.6691550     1.8091302    -1.6248843
C           1.4487429     0.6571616     0.0231323
H           0.5558879     0.0467473     0.1292929
C           2.5381471     0.4634155     0.8759832
H           2.4942503    -0.2967089     1.6517072
C           3.6821690     1.2477329     0.7415631
C           7.9121058     3.4430772     0.2284757
H           4.5163525     1.0989097     1.4227526
H           8.3140488     2.5571806     0.7461598
H           8.7224511     4.1797421     0.1757947
C           7.4489534     3.0482628    -1.1719741
H           8.2443178     2.4783940    -1.6661122
H           7.2748876     3.9516984    -1.7713914
C           6.1599412     2.2284790    -1.0834537
H           6.3370147     1.3225765    -0.4875540
H           5.8396833     1.8904134    -2.0755854
C           5.0254622     3.0568311    -0.4391593
H           4.7892380     3.8801960    -1.1296454
C           5.4670159     3.7656414     0.8568767
N           6.8092327     4.0216155     0.9920392
H           7.0303375     4.4815085     1.8678781
O           4.6638952     4.1568744     1.6928416
26
090_C11H13NO_1-0-20-17 (-90,) energy =    -556.9932258
C           3.7432591     2.2615288    -0.1907155
C           2.7402140     2.3199250    -1.1657268
H           2.8461115     3.0112022    -1.9996843
C           1.6056298     1.5111692    -1.0819843
H           0.8370190     1.5773469    -1.8477557
C           1.4582885     0.6258809    -0.0142694
H           0.5747734    -0.0028749     0.0576048
C           2.4510462     0.5593838     0.9656205
H           2.3416854    -0.1207671     1.8064290
C           3.5834484     1.3682323     0.8771254
C           7.9309237     3.4022920     0.1571202
H           4.3366823     1.3221077     1.6578026
H           8.3505963     2.4802896     0.5906230
H           8.7448733     4.1353105     0.1102680
C           7.3873889     3.1078427    -1.2390528
H           8.1475820     2.5661607    -1.8136577
H           7.1918833     4.0515362    -1.7654009
C           6.0952796     2.2951033    -1.1349844
H           6.2916015     1.3476708    -0.6140927
H           5.7152820     2.0312493    -2.1283725
C           5.0075572     3.0844024    -0.3696295
H           4.7493535     3.9585369    -0.9868421
C           5.5279558     3.6954977     0.9441751
N           6.8777300     3.9351883     1.0180076
H           7.1518795     4.3322694     1.9094627
O           4.7798421     4.0335115     1.8522274
26
090_C11H13NO_1-0-20-17 (-75,) energy =    -556.9926698
C           3.7361075     2.2857395    -0.1452606
C           2.8447441     2.1989518    -1.2238933
H           3.0267438     2.7960254    -2.1157900
C           1.7234599     1.3712298    -1.1708621
H           1.0430744     1.3278615    -2.0175152
C           1.4764290     0.6055055    -0.0306627
H           0.6027371    -0.0390510     0.0179373
C           2.3571369     0.6811164     1.0489616
H           2.1707566     0.0948452     1.9451629
C           3.4782702     1.5107479     0.9927959
C           7.9492548     3.3582900     0.0905800
H           4.1376347     1.5775925     1.8507058
H           8.3686387     2.3949953     0.4220014
H           8.7751452     4.0790262     0.0689856
C           7.3334864     3.1978194    -1.2971043
H           8.0544457     2.7009328    -1.9564441
H           7.1275244     4.1878758    -1.7252560
C           6.0358886     2.3939486    -1.1974699
H           6.2443606     1.4039290    -0.7684938
H           5.6054101     2.2180283    -2.1893071
C           4.9966865     3.1237404    -0.3137074
H           4.7084205     4.0408042    -0.8518667
C           5.5889656     3.6489429     1.0047381
N           6.9478552     3.8315837     1.0423617
H           7.2685884     4.1801263     1.9383222
O           4.8889252     3.9734422     1.9564561
26
090_C11H13NO_1-0-20-17 (-60,) energy =    -556.9913293
C           3.7289957     2.2948412    -0.1162376
C           2.9579010     2.0482681    -1.2633094
H           3.2189650     2.5348426    -2.2008441
C           1.8461719     1.2082061    -1.2240953
H           1.2622368     1.0442572    -2.1262423
C           1.4864036     0.5820111    -0.0297371
H           0.6210077    -0.0744345     0.0070885
C           2.2461057     0.8139723     1.1160660
H           1.9745327     0.3373460     2.0546129
C           3.3574505     1.6592751     1.0756371
C           7.9592025     3.2964022     0.0450161
H           3.9192276     1.8478404     1.9817705
H           8.3580498     2.2923133     0.2591903
H           8.8059400     3.9923471     0.0704866
C           7.2913537     3.3016125    -1.3269942
H           7.9752674     2.8667905    -2.0649362
H           7.0922445     4.3367165    -1.6353033
C           5.9825124     2.5132995    -1.2635793
H           6.1897849     1.4805281    -0.9508345
H           5.5209201     2.4500502    -2.2539263
C           4.9846893     3.1553277    -0.2687182
H           4.6641201     4.1112701    -0.7151042
C           5.6368287     3.5927923     1.0530335
N           7.0028359     3.6955733     1.0725421
H           7.3586852     3.9986012     1.9715075
O           4.9769693     3.9192617     2.0340555
26
090_C11H13NO_1-0-20-17 (-45,) energy =    -556.9895983
C           3.7385080     2.2887644    -0.0499800
C           3.0889238     1.8504003    -1.2164395
H           3.4317186     2.1891589    -2.1899940
C           1.9882357     0.9963341    -1.1594960
H           1.5047601     0.6820630    -2.0811120
C           1.5129143     0.5469066     0.0727052
H           0.6573102    -0.1214736     0.1220933
C           2.1475825     0.9722850     1.2383548
H           1.7878263     0.6362525     2.2076829
C           3.2457579     1.8337233     1.1811686
C           7.9603555     3.1828122     0.0706473
H           3.7087572     2.1722242     2.0986651
H           8.2961927     2.1365335     0.1407943
H           8.8497653     3.8153334     0.1739586
C           7.2751165     3.4160385    -1.2715021
H           7.9234882     3.0593637    -2.0800893
H           7.1226330     4.4928734    -1.4242140
C           5.9338692     2.6821332    -1.2928444
H           6.1064657     1.6076601    -1.1436389
H           5.4666396     2.7874934    -2.2763813
C           4.9693779     3.2005223    -0.1961744
H           4.5973319     4.1826291    -0.5315804
C           5.6730697     3.5460471     1.1289680
N           7.0403741     3.5011110     1.1565752
H           7.4219564     3.7636688     2.0574405
O           5.0497795     3.9148149     2.1204232
26
090_C11H13NO_1-0-20-17 (-30,) energy =    -556.9890365
C           3.7731162     2.2689728    -0.0339306
C           3.2539747     1.6560635    -1.1867793
H           3.7083491     1.8346446    -2.1556430
C           2.1473575     0.8081003    -1.1247702
H           1.7728910     0.3502038    -2.0369601
C           1.5285491     0.5488366     0.0971316
H           0.6683250    -0.1134085     0.1497281
C           2.0269077     1.1567876     1.2487553
H           1.5544730     0.9718825     2.2103518
C           3.1289424     2.0112964     1.1862967
C           7.9763301     3.0968510    -0.0055149
H           3.4924859     2.4898569     2.0861790
H           8.2660243     2.0381494    -0.0896483
H           8.8959667     3.6726336     0.1506262
C           7.2590092     3.5399073    -1.2754531
H           7.8685127     3.2860058    -2.1503361
H           7.1368835     4.6313530    -1.2666364
C           5.8967096     2.8509929    -1.3518891
H           6.0469506     1.7633835    -1.3648139
H           5.4039669     3.1099793    -2.2946880
C           4.9751836     3.2280439    -0.1645332
H           4.5607208     4.2274598    -0.3714575
C           5.7429428     3.4507154     1.1557495
N           7.1028845     3.3019478     1.1441594
H           7.5220185     3.4901841     2.0468929
O           5.1758359     3.7984437     2.1883341
26
090_C11H13NO_1-0-20-17 (-15,) energy =    -556.9897720
C           3.8230140     2.2119662    -0.0487448
C           3.4052867     1.4731560    -1.1670285
H           3.9751179     1.4974587    -2.0891358
C           2.2561934     0.6799498    -1.1276700
H           1.9667422     0.1156956    -2.0107278
C           1.4868685     0.6140644     0.0316304
H           0.5922050    -0.0022806     0.0652570
C           1.8782670     1.3574172     1.1457701
H           1.2862610     1.3252920     2.0571102
C           3.0226186     2.1534200     1.1056946
C           8.0600129     3.2135903    -0.1753941
H           3.3161952     2.7238160     1.9765355
H           8.4512923     2.2036766    -0.3746071
H           8.9240622     3.8704480    -0.0199552
C           7.2186552     3.6825436    -1.3560577
H           7.7813909     3.5408614    -2.2857734
H           7.0105949     4.7564814    -1.2596201
C           5.9120401     2.8903112    -1.3901791
H           6.1459428     1.8196518    -1.4630810
H           5.3420289     3.1499247    -2.2887311
C           5.0440885     3.1465115    -0.1391922
H           4.6531176     4.1740144    -0.2149683
C           5.8869550     3.1930196     1.1612800
N           7.2500244     3.2196908     1.0361216
H           7.7188708     3.2678066     1.9328500
O           5.3834799     3.2720701     2.2775482
26
090_C11H13NO_1-0-20-17 (0,) energy =    -556.9913262
C           3.8322856     2.1926556    -0.0230996
C           3.4891766     1.3174805    -1.0620919
H           4.1436054     1.1981017    -1.9191088
C           2.3069908     0.5730926    -1.0200149
H           2.0704394    -0.1021489    -1.8384965
C           1.4365456     0.6989139     0.0600087
H           0.5156798     0.1225093     0.0940776
C           1.7575331     1.5800234     1.0950175
H           1.0851288     1.6943141     1.9414922
C           2.9357395     2.3225167     1.0514697
C           8.0756023     3.3406634    -0.1926947
H           3.1781682     2.9957438     1.8643014
H           8.5620281     2.3882860    -0.4572665
H           8.8729278     4.0733579    -0.0197850
C           7.1661353     3.7852399    -1.3334320
H           7.7167837     3.7244468    -2.2789936
H           6.8779261     4.8351235    -1.1910794
C           5.9180106     2.9019411    -1.3707543
H           6.2242301     1.8531738    -1.4853234
H           5.3016737     3.1487729    -2.2424405
C           5.0848511     3.0677791    -0.0858662
H           4.7474581     4.1164674    -0.0527479
C           5.9665342     2.9336684     1.1839906
N           7.3054777     3.1926003     1.0373924
H           7.8149288     3.0791275     1.9061943
O           5.5080492     2.6914011     2.2933434
26
090_C11H13NO_1-0-20-17 (15,) energy =    -556.9919830
C           3.8298108     2.2062249    -0.0411669
C           3.5741221     1.1998887    -0.9801115
H           4.2886255     0.9904079    -1.7697883
C           2.3970272     0.4482135    -0.9257493
H           2.2216504    -0.3270005    -1.6673935
C           1.4539377     0.6916395     0.0705048
H           0.5375696     0.1087386     0.1128419
C           1.6963681     1.6946178     1.0122194
H           0.9689740     1.8955329     1.7945400
C           2.8694098     2.4435185     0.9546907
C           8.0698305     3.3083104    -0.2349324
H           3.0555940     3.2122908     1.6972996
H           8.5331156     2.3766726    -0.5970961
H           8.8840226     4.0105753    -0.0196774
C           7.1411753     3.8678380    -1.3096991
H           7.6718990     3.8881717    -2.2683448
H           6.8710175     4.9034559    -1.0644870
C           5.8805618     3.0053744    -1.3994524
H           6.1784182     1.9715059    -1.6194248
H           5.2390179     3.3320630    -2.2257747
C           5.0902237     3.0632168    -0.0799308
H           4.7684324     4.1088852     0.0517606
C           5.9916556     2.8111883     1.1544855
N           7.3312802     3.0612962     0.9997324
H           7.8618991     2.8698496     1.8417158
O           5.5404448     2.4863964     2.2446080
26
090_C11H13NO_1-0-20-17 (30,) energy =    -556.9919828
C           3.8337249     2.2166857    -0.0382727
C           3.6673704     1.0949816    -0.8591851
H           4.4518427     0.7987185    -1.5490493
C           2.4951030     0.3369641    -0.8085596
H           2.3879633    -0.5284241    -1.4576529
C           1.4687905     0.6869113     0.0677215
H           0.5557525     0.0986090     0.1057543
C           1.6249421     1.8002356     0.8960347
H           0.8345169     2.0826295     1.5866054
C           2.7954967     2.5540963     0.8411791
C           8.0674412     3.2714265    -0.3007038
H           2.9147434     3.4125914     1.4963603
H           8.4898591     2.3636887    -0.7607043
H           8.9091617     3.9317003    -0.0600289
C           7.1154021     3.9464824    -1.2857135
H           7.6134207     4.0437160    -2.2571789
H           6.8797150     4.9607138    -0.9371409
C           5.8310198     3.1233920    -1.4084501
H           6.0954013     2.1123419    -1.7440744
H           5.1637634     3.5430989    -2.1698967
C           5.0957725     3.0685057    -0.0566255
H           4.7873115     4.0992610     0.1777793
C           6.0325555     2.7005824     1.1193627
N           7.3715023     2.9373115     0.9384569
H           7.9288175     2.6643702     1.7397503
O           5.6049019     2.2955723     2.1914322
26
090_C11H13NO_1-0-20-17 (45,) energy =    -556.9922267
C           3.8420100     2.2216963     0.0255497
C           3.7694635     1.0056069    -0.6666299
H           4.6347093     0.6332322    -1.2084974
C           2.5984678     0.2469666    -0.6606547
H           2.5648287    -0.6949106    -1.2022823
C           1.4753128     0.6932242     0.0370273
H           0.5624821     0.1034679     0.0394822
C           1.5354909     1.9013939     0.7323259
H           0.6687434     2.2584526     1.2824470
C           2.7089177     2.6554808     0.7237359
C           8.0601238     3.2401681    -0.3745071
H           2.7495092     3.5934180     1.2723524
H           8.4316657     2.3659080    -0.9329982
H           8.9314506     3.8595164    -0.1304614
C           7.0717347     4.0165469    -1.2420556
H           7.5167333     4.1862456    -2.2292565
H           6.8830541     5.0020291    -0.7959667
C           5.7597279     3.2371637    -1.3588391
H           5.9670540     2.2553774    -1.8034145
H           5.0595970     3.7433520    -2.0332829
C           5.1031284     3.0723009     0.0265862
H           4.8170458     4.0780003     0.3693736
C           6.0960821     2.5861249     1.1071511
N           7.4280034     2.8170625     0.8717513
H           8.0233456     2.4650963     1.6126012
O           5.7179981     2.0886724     2.1585863
26
090_C11H13NO_1-0-20-17 (60,) energy =    -556.9928862
C           3.8609892     2.2137813     0.1056013
C           3.8516245     0.9233720    -0.4419451
H           4.7762395     0.4859946    -0.8111874
C           2.6740272     0.1800206    -0.5006571
H           2.6894557    -0.8215882    -0.9226115
C           1.4790646     0.7174915    -0.0168283
H           0.5606574     0.1383286    -0.0631582
C           1.4748452     2.0005991     0.5292085
H           0.5520125     2.4284852     0.9122466
C           2.6578293     2.7399068     0.5872496
C           8.0563914     3.2380473    -0.4460272
H           2.6465898     3.7391150     1.0170339
H           8.3863885     2.4051120    -1.0876907
H           8.9457093     3.8352013    -0.2119756
C           7.0235681     4.0789652    -1.1931552
H           7.4084007     4.3161168    -2.1917262
H           6.8732510     5.0313471    -0.6676670
C           5.6973188     3.3204563    -1.2817750
H           5.8531931     2.3710065    -1.8111878
H           4.9600107     3.8841058    -1.8648256
C           5.1296634     3.0484599     0.1281917
H           4.8796382     4.0228063     0.5736246
C           6.1827129     2.4551560     1.0879046
N           7.4985111     2.7276225     0.8038208
H           8.1352954     2.2955762     1.4636766
O           5.8700328     1.8394092     2.0974055
26
090_C11H13NO_1-0-20-17 (75,) energy =    -556.9932821
C           3.8746966     2.1919361     0.1538577
C           3.8889567     0.8440980    -0.2304491
H           4.8373003     0.3510708    -0.4281136
C           2.7029471     0.1198743    -0.3371253
H           2.7356454    -0.9267137    -0.6287403
C           1.4776660     0.7325800    -0.0639748
H           0.5532660     0.1669022    -0.1450442
C           1.4502979     2.0728606     0.3202805
H           0.5037731     2.5593133     0.5414721
C           2.6415625     2.7934164     0.4273357
C           8.0398791     3.2543107    -0.5261965
H           2.6125007     3.8376586     0.7318148
H           8.3299961     2.4771968    -1.2515891
H           8.9433048     3.8304606    -0.2937316
C           6.9700235     4.1529783    -1.1423584
H           7.2980534     4.4708768    -2.1387604
H           6.8539472     5.0591486    -0.5331203
C           5.6377719     3.4037396    -1.2153284
H           5.7543410     2.4977781    -1.8260719
H           4.8695208     4.0125577    -1.7054197
C           5.1511450     3.0123213     0.1983012
H           4.9300503     3.9457683     0.7373570
C           6.2536002     2.3410398     1.0406276
N           7.5512897     2.6414603     0.7067951
H           8.2235361     2.1605268     1.2935918
O           5.9995686     1.6384113     2.0095955
26
090_C11H13NO_1-0-20-17 (90,) energy =    -556.9931313
C           3.8891420     1.9653081    -0.4644465
C           3.0769390     2.4161574     0.5844582
H           3.3726003     3.2887944     1.1579613
C           1.8746325     1.7738166     0.8800883
H           1.2552849     2.1429454     1.6935259
C           1.4613593     0.6694881     0.1324994
H           0.5222972     0.1730421     0.3623830
C           2.2586719     0.2149358    -0.9181340
H           1.9444675    -0.6379874    -1.5142310
C           3.4603651     0.8609345    -1.2114852
C           7.6833064     3.9846897     0.2439768
H           4.0738635     0.5038649    -2.0366708
H           7.6948187     4.0057730     1.3455351
H           8.5686821     4.5337705    -0.0976001
C           7.7253279     2.5367148    -0.2388823
H           8.5319145     2.0077841     0.2818324
H           7.9584453     2.5118846    -1.3116661
C           6.3748703     1.8637523     0.0141157
H           6.1442588     1.8826172     1.0883889
H           6.3998958     0.8085361    -0.2802204
C           5.2464117     2.5801384    -0.7641229
H           5.4484184     2.4265027    -1.8354766
C           5.2824884     4.1095923    -0.5959917
N           6.4938370     4.6631596    -0.2645368
H           6.4467041     5.6712769    -0.1705410
O           4.3110202     4.8189256    -0.8244847
26
090_C11H13NO_1-0-20-17 (105,) energy =    -556.9924214
C           3.8595042     1.9950966    -0.4291383
C           2.9468135     2.5227560     0.4927717
H           3.1504651     3.4753299     0.9673807
C           1.7590480     1.8482807     0.7824126
H           1.0633385     2.2768535     1.4993289
C           1.4570630     0.6404469     0.1532271
H           0.5292548     0.1210259     0.3780868
C           2.3525704     0.1112546    -0.7774067
H           2.1262656    -0.8225921    -1.2856729
C           3.5384249     0.7864010    -1.0640145
C           7.6947099     3.9380277     0.2819782
H           4.2254624     0.3701108    -1.7986903
H           7.7490270     3.8551699     1.3791192
H           8.5687599     4.5157092    -0.0411559
C           7.7074399     2.5430203    -0.3377201
H           8.5318047     1.9641669     0.0944337
H           7.8932978     2.6204764    -1.4172705
C           6.3645836     1.8546669    -0.0885123
H           6.1819894     1.7782766     0.9924557
H           6.3718734     0.8297463    -0.4748932
C           5.2042676     2.6390904    -0.7467693
H           5.3478685     2.5646518    -1.8365478
C           5.2710332     4.1518405    -0.4788477
N           6.4903838     4.6621767    -0.1143100
H           6.4628272     5.6635587     0.0387541
O           4.3134737     4.8952423    -0.6588232
26
090_C11H13NO_1-0-20-17 (120,) energy =    -556.9911119
C           3.8523130     2.0132104    -0.4098174
C           2.8513126     2.6112908     0.3661668
H           2.9845511     3.6222576     0.7292414
C           1.6697182     1.9244632     0.6557410
H           0.9092816     2.4086586     1.2632643
C           1.4555811     0.6373322     0.1649427
H           0.5322731     0.1095920     0.3889834
C           2.4352553     0.0393368    -0.6293518
H           2.2797585    -0.9574280    -1.0343586
C           3.6156331     0.7239652    -0.9135415
C           7.7086695     3.8908537     0.3190189
H           4.3614416     0.2482937    -1.5468583
H           7.7832006     3.6948218     1.4002483
H           8.5746117     4.5032659     0.0413950
C           7.7087050     2.5693728    -0.4437138
H           8.5495573     1.9540009    -0.1036686
H           7.8563897     2.7625790    -1.5147089
C           6.3784808     1.8495479    -0.2195765
H           6.2366761     1.6662197     0.8545181
H           6.3852032     0.8673039    -0.7024083
C           5.1863816     2.6806095    -0.7551391
H           5.2649290     2.6777883    -1.8546648
C           5.2807297     4.1751658    -0.4056023
N           6.4955424     4.6444057     0.0194038
H           6.4826896     5.6380601     0.2168632
O           4.3433068     4.9490448    -0.5706462
26
090_C11H13NO_1-0-20-17 (135,) energy =    -556.9896142
C           3.8420062     2.0432536    -0.3995331
C           2.7753464     2.6967540     0.2333581
H           2.8587570     3.7496292     0.4681570
C           1.5999015     2.0098826     0.5462684
H           0.7925288     2.5415192     1.0437001
C           1.4518023     0.6631269     0.2194535
H           0.5336363     0.1340807     0.4609615
C           2.4951154     0.0062110    -0.4334218
H           2.3960089    -1.0404838    -0.7099848
C           3.6710196     0.6902584    -0.7388930
C           7.6955417     3.8192182     0.4139459
H           4.4610344     0.1554651    -1.2585935
H           7.7694151     3.4701252     1.4556271
H           8.5563783     4.4727675     0.2304190
C           7.7038086     2.6235578    -0.5323856
H           8.5542565     1.9746505    -0.2934659
H           7.8375605     2.9722041    -1.5652175
C           6.3870112     1.8584296    -0.3976939
H           6.2723178     1.5134950     0.6388372
H           6.4118814     0.9604335    -1.0220991
C           5.1643929     2.7298064    -0.7829921
H           5.1641189     2.8209466    -1.8813704
C           5.2869537     4.1947359    -0.3245816
N           6.4771036     4.5963858     0.2183386
H           6.4801485     5.5778847     0.4688885
O           4.3824829     5.0082111    -0.4912169
26
090_C11H13NO_1-0-20-17 (150,) energy =    -556.9890284
C           3.8335334     2.0741011    -0.4123501
C           2.7032343     2.7633318     0.0533882
H           2.7395409     3.8415074     0.1381590
C           1.5358740     2.0779063     0.3948423
H           0.6793700     2.6399293     0.7589401
C           1.4588386     0.6915882     0.2684706
H           0.5470302     0.1622984     0.5325944
C           2.5682719    -0.0055842    -0.2076787
H           2.5300255    -1.0862354    -0.3204021
C           3.7378799     0.6781409    -0.5414923
C           7.6787911     3.7295529     0.4795069
H           4.5805712     0.1024044    -0.9099365
H           7.7437123     3.2395511     1.4631831
H           8.5403093     4.4020773     0.3953938
C           7.6920031     2.6783332    -0.6244668
H           8.5506174     2.0109714    -0.4873622
H           7.8115393     3.1708112    -1.5988115
C           6.3853967     1.8861247    -0.5828766
H           6.2953898     1.3968341     0.3959977
H           6.4144979     1.0865694    -1.3301224
C           5.1423160     2.7795137    -0.8255033
H           5.0732695     2.9631678    -1.9094511
C           5.2918981     4.2047110    -0.2539300
N           6.4611541     4.5257642     0.3793787
H           6.4781375     5.4857018     0.7022221
O           4.4185979     5.0570125    -0.3947240
26
090_C11H13NO_1-0-20-17 (165,) energy =    -556.9894955
C           3.8417592     2.0645370    -0.3958107