26
180_C10H13NO2_11-0-2-3 (-165,) energy =    -594.0907106
N           1.6849691    -1.1146686    -0.3105611
H           1.9319805    -0.9577376     0.6583823
C           2.5385338    -0.5844807    -1.2269388
C           3.7046567     0.2240861    -0.6081767
O           3.3782840     0.7238350     0.6822501
C           2.5899947     1.9051434     0.6503598
H           2.4147900     2.1939881     1.6896225
H           1.6235436     1.7380052     0.1547392
H           3.1185098     2.7193903     0.1344919
H           3.8953701     1.0580011    -1.2994188
O           2.4543609    -0.7477665    -2.4391579
C           0.7281279    -2.1528895    -0.6496261
H           1.0796202    -3.1422557    -0.3299497
H           0.6121102    -2.1534799    -1.7345056
H          -0.2422024    -1.9539846    -0.1825249
C           7.2653063    -2.2315392    -0.3786881
H           8.1615478    -2.8441079    -0.3262624
C           6.7671535    -1.6162925     0.7694171
H           7.2740733    -1.7474014     1.7221339
C           5.6169865    -0.8261182     0.7047551
H           5.2348898    -0.3399156     1.5949027
C           4.9541716    -0.6468564    -0.5134143
C           5.4565981    -1.2667118    -1.6662489
H           4.9343761    -1.1380224    -2.6092809
C           6.6054640    -2.0531479    -1.5970731
H           6.9856490    -2.5276037    -2.4980168
26
180_C10H13NO2_11-0-2-3 (-150,) energy =    -594.0883801
N           1.6186435    -1.1889073    -0.3648366
H           1.9121529    -1.0560020     0.5965086
C           2.4546535    -0.6079279    -1.2764773
C           3.6368595     0.1701750    -0.6493315
O           3.3300860     0.6456425     0.6539693
C           2.5272956     1.8184239     0.6547431
H           2.3702263     2.0900859     1.7013685
H           1.5533105     1.6458758     0.1763483
H           3.0361489     2.6456757     0.1398687
H           3.8463194     1.0149068    -1.3218167
O           2.3615012    -0.7422404    -2.4901783
C           0.8996085    -2.4151814    -0.6814211
H          -0.0520387    -2.4502492    -0.1423012
H           1.4898195    -3.3043532    -0.4234803
H           0.7028919    -2.4221917    -1.7545719
C           7.1297563    -2.3862250    -0.4908064
H           8.0092525    -3.0237612    -0.4557815
C           6.6380785    -1.8038305     0.6770879
H           7.1332382    -1.9854566     1.6276656
C           5.5095621    -0.9815984     0.6351179
H           5.1333847    -0.5197645     1.5406272
C           4.8626019    -0.7367319    -0.5803509
C           5.3584021    -1.3237884    -1.7529320
H           4.8482089    -1.1451123    -2.6944578
C           6.4856512    -2.1424680    -1.7062700
H           6.8612844    -2.5906557    -2.6224057
26
180_C10H13NO2_11-0-2-3 (-135,) energy =    -594.0839966
N           1.5901171    -1.1393543    -0.3977427
H           1.8934441    -0.9738811     0.5575677
C           2.4131397    -0.5118617    -1.3024920
C           3.6178606     0.2291264    -0.6713990
O           3.3245821     0.7104664     0.6325779
C           2.5290664     1.8881920     0.6343231
H           2.3878605     2.1697075     1.6805167
H           1.5473384     1.7175855     0.1706465
H           3.0351515     2.7079150     0.1049078
H           3.8626849     1.0672751    -1.3400702
O           2.3143534    -0.6225661    -2.5164923
C           1.1283907    -2.5009547    -0.6603454
H           0.2163927    -2.7056503    -0.0919061
H           1.8931596    -3.2424767    -0.3940950
H           0.9072180    -2.5873189    -1.7253530
C           6.9962026    -2.4754246    -0.5086934
H           7.8472273    -3.1504428    -0.4731823
C           6.5054807    -1.9016823     0.6639008
H           6.9733323    -2.1276487     1.6187523
C           5.4135216    -1.0314362     0.6211400
H           5.0396829    -0.5754383     1.5305771
C           4.8032907    -0.7286847    -0.6003923
C           5.2974646    -1.3079404    -1.7775543
H           4.8145102    -1.0848804    -2.7241148
C           6.3881131    -2.1746151    -1.7299569
H           6.7634242    -2.6156165    -2.6496512
26
180_C10H13NO2_11-0-2-3 (-120,) energy =    -594.0779105
N           1.5567804    -1.0916680    -0.4446268
H           1.8348780    -0.8740965     0.5100096
C           2.3782327    -0.4137269    -1.3298448
C           3.6000531     0.2890422    -0.6855235
O           3.3131384     0.7699582     0.6196571
C           2.5315584     1.9570105     0.6225167
H           2.3912176     2.2380102     1.6688642
H           1.5484870     1.7994129     0.1561621
H           3.0475739     2.7718484     0.0951734
H           3.8793001     1.1229814    -1.3458259
O           2.2803618    -0.4901351    -2.5444519
C           1.3710492    -2.5351241    -0.6348466
H           0.5186887    -2.8780381    -0.0413716
H           2.2661738    -3.1004831    -0.3439467
H           1.1596536    -2.7226623    -1.6891928
C           6.8712057    -2.5429653    -0.5193546
H           7.6956571    -3.2500983    -0.4829524
C           6.3705786    -1.9869196     0.6576250
H           6.8043690    -2.2587698     1.6165423
C           5.3127416    -1.0754285     0.6141485
H           4.9325649    -0.6322803     1.5273333
C           4.7476771    -0.7129491    -0.6129725
C           5.2509703    -1.2755741    -1.7943733
H           4.8016805    -1.0065324    -2.7457236
C           6.3074530    -2.1834520    -1.7460984
H           6.6906773    -2.6105952    -2.6690189
26
180_C10H13NO2_11-0-2-3 (-105,) energy =    -594.0706571
N           1.4988346    -1.0788944    -0.5087618
H           1.7024792    -0.7854115     0.4463816
C           2.3404796    -0.3603231    -1.3621876
C           3.5699067     0.3082646    -0.6927039
O           3.2756086     0.7768003     0.6153644
C           2.5289550     1.9858777     0.6226982
H           2.3742922     2.2536919     1.6704320
H           1.5512034     1.8659575     0.1332948
H           3.0785048     2.7940074     0.1195158
H           3.8744556     1.1460271    -1.3368388
O           2.2557778    -0.3996779    -2.5769810
C           1.5837446    -2.5493379    -0.5765180
H           0.7709354    -2.9824448     0.0135250
H           2.5444021    -2.9262850    -0.2026608
H           1.4591089    -2.8619307    -1.6156062
C           6.7826335    -2.5885623    -0.5333255
H           7.5926760    -3.3121571    -0.4981946
C           6.2614808    -2.0606628     0.6477910
H           6.6651877    -2.3710020     1.6081113
C           5.2219505    -1.1280638     0.6068786
H           4.8255894    -0.7055901     1.5230116
C           4.6964068    -0.7167838    -0.6224770
C           5.2199018    -1.2514724    -1.8079773
H           4.8006560    -0.9440081    -2.7615545
C           6.2582742    -2.1800182    -1.7622554
H           6.6578938    -2.5849738    -2.6881900
26
180_C10H13NO2_11-0-2-3 (-90,) energy =    -594.0648108
N           1.2230181    -0.7819286    -0.8514449
H           0.5323174    -0.8135210    -1.6049444
C           2.4578523    -0.6938279    -1.5383141
C           3.6259333    -0.0250519    -0.7683502
O           3.2841142     0.3203466     0.5559771
C           2.6240051     1.5688112     0.6902645
H           2.4657961     1.7226301     1.7607712
H           1.6538294     1.5697454     0.1793641
H           3.2464562     2.3888148     0.3005497
H           3.8360530     0.8820927    -1.3584465
O           2.5436029    -0.8862371    -2.7374020
C           1.0247897    -2.0116829    -0.0513625
H           1.1055817    -2.9240714    -0.6570578
H           0.0343938    -1.9735559     0.4101632
H           1.7717361    -2.0453533     0.7461338
C           7.1882851    -2.4979202    -0.7496869
H           8.0830943    -3.1148653    -0.7467137
C           6.5980539    -2.1089503     0.4525768
H           7.0310514    -2.4221172     1.3993000
C           5.4505204    -1.3127978     0.4503944
H           4.9974358    -0.9997908     1.3837778
C           4.8801336    -0.8999542    -0.7581672
C           5.4765824    -1.2908384    -1.9649818
H           5.0330024    -0.9829434    -2.9060290
C           6.6229097    -2.0848135    -1.9580645
H           7.0762394    -2.3791679    -2.9010765
26
180_C10H13NO2_11-0-2-3 (-75,) energy =    -594.0717488
N           1.2946472    -0.8596899    -0.9222278
H           0.5802944    -0.9642093    -1.6443324
C           2.4734936    -0.5503493    -1.6111379
C           3.6364585     0.0413630    -0.7748267
O           3.2686556     0.3549517     0.5506651
C           2.5522233     1.5725991     0.6873629
H           2.3923274     1.7199303     1.7583849
H           1.5806622     1.5295404     0.1802776
H           3.1338264     2.4193505     0.2926126
H           3.9112349     0.9579135    -1.3211100
O           2.5240288    -0.5224353    -2.8302795
C           1.2796034    -2.0673170    -0.0723143
H           1.4453468    -2.9857796    -0.6503849
H           0.3105187    -2.1315364     0.4299837
H           2.0554576    -1.9792902     0.6908556
C           7.0788469    -2.5962664    -0.7402793
H           7.9444822    -3.2534429    -0.7343230
C           6.5352580    -2.1386065     0.4597828
H           6.9761571    -2.4379189     1.4073352
C           5.4248724    -1.2911581     0.4545882
H           5.0075247    -0.9261115     1.3857602
C           4.8452822    -0.8962186    -0.7555373
C           5.3948311    -1.3562397    -1.9605023
H           4.9453930    -1.0558300    -2.9017852
C           6.5044679    -2.2004960    -1.9503689
H           6.9216653    -2.5483624    -2.8918399
26
180_C10H13NO2_11-0-2-3 (-60,) energy =    -594.0771769
N           1.3734006    -0.9227434    -0.9980303
H           0.6761786    -1.0871396    -1.7231926
C           2.5016635    -0.4249228    -1.6356501
C           3.6564468     0.0940395    -0.7436961
O           3.2628774     0.3743418     0.5835142
C           2.5116704     1.5704939     0.7244958
H           2.3298488     1.6991408     1.7943442
H           1.5495861     1.5095847     0.2003372
H           3.0751742     2.4378723     0.3492594
H           3.9801578     1.0200525    -1.2446420
O           2.5291451    -0.2283397    -2.8422926
C           1.4653508    -2.0721103    -0.0837293
H           1.7514764    -2.9956169    -0.6039301
H           0.4924436    -2.2208061     0.3931375
H           2.1987598    -1.8562236     0.6936528
C           7.0036847    -2.6618327    -0.7279886
H           7.8465371    -3.3479590    -0.7276334
C           6.4919368    -2.1763193     0.4752367
H           6.9355666    -2.4826349     1.4192452
C           5.4105633    -1.2921324     0.4776993
H           5.0177096    -0.9065123     1.4113470
C           4.8279861    -0.8884853    -0.7280459
C           5.3460126    -1.3762171    -1.9362148
H           4.8969599    -1.0638569    -2.8741994
C           6.4271851    -2.2566703    -1.9339719
H           6.8200103    -2.6257802    -2.8778156
26
180_C10H13NO2_11-0-2-3 (-45,) energy =    -594.0806513
N           1.4368976    -0.9965231    -1.0645753
H           0.7598588    -1.2123311    -1.7925840
C           2.5027638    -0.3393120    -1.6412110
C           3.6562962     0.1346253    -0.7235233
O           3.2547727     0.4051007     0.6054038
C           2.4750843     1.5836924     0.7403453
H           2.2848034     1.7104146     1.8088754
H           1.5168199     1.5003148     0.2111925
H           3.0184444     2.4633150     0.3644466
H           4.0080474     1.0615761    -1.2026296
O           2.5014194    -0.0220520    -2.8243929
C           1.5742236    -2.0610044    -0.0648863
H           1.9696029    -2.9890275    -0.4984537
H           0.5904566    -2.2651726     0.3676876
H           2.2376214    -1.7261934     0.7312755
C           6.9387318    -2.6955002    -0.7303966
H           7.7665275    -3.3996554    -0.7363929
C           6.4528091    -2.1927871     0.4765618
H           6.9015195    -2.5032704     1.4167869
C           5.3906213    -1.2858160     0.4875162
H           5.0177899    -0.8875160     1.4241609
C           4.8016329    -0.8764237    -0.7131894
C           5.2942929    -1.3808896    -1.9251770
H           4.8431541    -1.0619909    -2.8603348
C           6.3563131    -2.2842614    -1.9314739
H           6.7295658    -2.6664377    -2.8780160
26
180_C10H13NO2_11-0-2-3 (-30,) energy =    -594.0823721
N           1.5062570    -1.0832548    -1.1227221
H           0.8444527    -1.3329377    -1.8513256
C           2.4983382    -0.2885456    -1.6362625
C           3.6534780     0.1614489    -0.7077628
O           3.2506958     0.4327353     0.6226516
C           2.4530986     1.6002503     0.7481023
H           2.2576258     1.7314254     1.8151040
H           1.4972039     1.5004079     0.2163734
H           2.9827983     2.4854578     0.3663513
H           4.0189534     1.0867422    -1.1787854
O           2.4626391     0.1188760    -2.7927294
C           1.6389147    -2.0554241    -0.0387168
H           2.1171078    -2.9857759    -0.3727847
H           0.6420597    -2.2915765     0.3456799
H           2.2269355    -1.6218775     0.7680503
C           6.8942668    -2.7137187    -0.7354849
H           7.7122059    -3.4291969    -0.7482651
C           6.4203839    -2.2095100     0.4756430
H           6.8691652    -2.5303014     1.4123535
C           5.3705639    -1.2882866     0.4952629
H           5.0072934    -0.8889670     1.4353102
C           4.7822136    -0.8659097    -0.7010605
C           5.2633542    -1.3714715    -1.9172117
H           4.8130841    -1.0410106    -2.8491432
C           6.3126101    -2.2893886    -1.9324598
H           6.6766560    -2.6724824    -2.8821898
26
180_C10H13NO2_11-0-2-3 (-15,) energy =    -594.0827463
N           1.6510745    -1.1797801    -1.2267651
H           0.9945166    -1.4289007    -1.9583227
C           2.5832725    -0.2880703    -1.6746240
C           3.7401625     0.1375093    -0.7350164
O           3.3351527     0.4127326     0.5956662
C           2.5457018     1.5861723     0.7144852
H           2.3421864     1.7197063     1.7796695
H           1.5930896     1.4949739     0.1743486
H           3.0842065     2.4670856     0.3354823
H           4.1213869     1.0592445    -1.1997204
O           2.5286777     0.1820343    -2.8076380
C           1.7075753    -2.0567978    -0.0631113
H           2.1871542    -3.0171140    -0.2948296
H           0.6885379    -2.2508093     0.2867229
H           2.2609720    -1.5671627     0.7354659
C           6.9306904    -2.7902468    -0.7694126
H           7.7366233    -3.5191706    -0.7849245
C           6.4517012    -2.2975256     0.4443143
H           6.8847533    -2.6410055     1.3803708
C           5.4171941    -1.3589223     0.4675015
H           5.0504868    -0.9677061     1.4096871
C           4.8500381    -0.9079924    -0.7282661
C           5.3363311    -1.4020626    -1.9471333
H           4.9015799    -1.0490244    -2.8784367
C           6.3698627    -2.3372013    -1.9660266
H           6.7382604    -2.7113295    -2.9176439
26
180_C10H13NO2_11-0-2-3 (0,) energy =    -594.0824534
N           1.7532353    -1.2757549    -1.3423078
H           1.0511547    -1.4728244    -2.0449546
C           2.6563912    -0.3442271    -1.7598876
C           3.7894069     0.0794187    -0.7940682
O           3.3445517     0.3098214     0.5319119
C           2.5582884     1.4824364     0.6651675
H           2.3152933     1.5785992     1.7262015
H           1.6251255     1.4196906     0.0867338
H           3.1129635     2.3744614     0.3384984
H           4.1646810     1.0189554    -1.2271669
O           2.6126558     0.1332394    -2.8906635
C           1.6605715    -1.9848308    -0.0726665
H           1.1612848    -2.9417280    -0.2514558
H           1.0888660    -1.4267646     0.6785156
H           2.6530277    -2.1869403     0.3301480
C           7.0337053    -2.7884286    -0.8206180
H           7.8531621    -3.5021522    -0.8335998
C           6.5283751    -2.3214267     0.3923852
H           6.9537870    -2.6688065     1.3305167
C           5.4763524    -1.4020470     0.4120214
H           5.0889451    -1.0293134     1.3534840
C           4.9174403    -0.9464815    -0.7864096
C           5.4301197    -1.4152910    -2.0043121
H           5.0010088    -1.0596544    -2.9372240
C           6.4814859    -2.3300807    -2.0194984
H           6.8703778    -2.6852189    -2.9702286
26
180_C10H13NO2_11-0-2-3 (15,) energy =    -594.0817577
N           1.8373081    -1.3745800    -1.3834029
H           1.1211208    -1.5493422    -2.0787430
C           2.6618572    -0.3508247    -1.7523266
C           3.8007289     0.0724558    -0.7917871
O           3.3602360     0.3046807     0.5364322
C           2.5785535     1.4800278     0.6709204
H           2.3340362     1.5749850     1.7317035
H           1.6458125     1.4235643     0.0906598
H           3.1368277     2.3705352     0.3463648
H           4.1732414     1.0123142    -1.2262067
O           2.5763799     0.1738371    -2.8592032
C           1.6513357    -1.9863237    -0.0736455
H           1.1738434    -2.9597989    -0.2183156
H           1.0208859    -1.3817055     0.5904789
H           2.6125948    -2.1457821     0.4143415
C           7.0410209    -2.7975851    -0.8338740
H           7.8596637    -3.5121429    -0.8515127
C           6.5338654    -2.3401316     0.3819020
H           6.9575048    -2.6959292     1.3176700
C           5.4827879    -1.4196108     0.4074786
H           5.0946125    -1.0533029     1.3511640
C           4.9268023    -0.9539223    -0.7880386
C           5.4414868    -1.4129925    -2.0086499
H           5.0142889    -1.0492333    -2.9395492
C           6.4917392    -2.3286362    -2.0301260
H           6.8820213    -2.6762824    -2.9830421
26
180_C10H13NO2_11-0-2-3 (30,) energy =    -594.0801543
N           1.9137665    -1.4762222    -1.3938568
H           1.2064995    -1.6508176    -2.1004624
C           2.6614701    -0.3770814    -1.7273752
C           3.8083746     0.0585313    -0.7801307
O           3.3818566     0.2906929     0.5535627
C           2.5974163     1.4631822     0.6954053
H           2.3609182     1.5566094     1.7581187
H           1.6600866     1.4050230     0.1224126
H           3.1498977     2.3557751     0.3667158
H           4.1681316     1.0008623    -1.2196511
O           2.5390423     0.1707067    -2.8185876
C           1.6003036    -1.9781990    -0.0590821
H           1.1668469    -2.9767899    -0.1648683
H           0.8847930    -1.3403379     0.4766212
H           2.5069226    -2.0582668     0.5395280
C           7.0626912    -2.7931808    -0.8561934
H           7.8847910    -3.5034899    -0.8825877
C           6.5504286    -2.3567027     0.3650085
H           6.9735065    -2.7244610     1.2964019
C           5.4948799    -1.4416367     0.4019150
H           5.1037635    -1.0909893     1.3502731
C           4.9398453    -0.9606495    -0.7876166
C           5.4597626    -1.3984875    -2.0136538
H           5.0331348    -1.0238172    -2.9406512
C           6.5142068    -2.3086278    -2.0466618
H           6.9084507    -2.6399115    -3.0037596
26
180_C10H13NO2_11-0-2-3 (45,) energy =    -594.0774448
N           1.9401395    -1.5607469    -1.3473283
H           1.2933554    -1.7879283    -2.0981913
C           2.6486921    -0.4335680    -1.7003613
C           3.7969693     0.0504107    -0.7753899
O           3.4017437     0.2857261     0.5673626
C           2.5985568     1.4437571     0.7195122
H           2.3862581     1.5425194     1.7867950
H           1.6483596     1.3629983     0.1704399
H           3.1255923     2.3435584     0.3695605
H           4.1228686     0.9965717    -1.2322033
O           2.5375458     0.0613735    -2.8168082
C           1.4193833    -1.8819847    -0.0177635
H           1.0760435    -2.9203938    -0.0233893
H           0.5769773    -1.2372643     0.2697955
H           2.2060021    -1.7782037     0.7277816
C           7.1052071    -2.7360276    -0.9087370
H           7.9400421    -3.4306893    -0.9491596
C           6.5616784    -2.3614716     0.3195581
H           6.9731487    -2.7625687     1.2423659
C           5.4896904    -1.4669236     0.3750765
H           5.0752337    -1.1645061     1.3299593
C           4.9509148    -0.9430384    -0.8033081
C           5.5016033    -1.3183536    -2.0363577
H           5.0840476    -0.9122675    -2.9540995
C           6.5715941    -2.2093557    -2.0878855
H           6.9899169    -2.4920273    -3.0503611
26
180_C10H13NO2_11-0-2-3 (60,) energy =    -594.0738302
N           1.9763094    -1.6780013    -1.2092377
H           1.4223015    -2.0093709    -1.9970122
C           2.6690794    -0.5580890    -1.6431841
C           3.8088753     0.0015719    -0.7517151
O           3.4401110     0.2430575     0.5972062
C           2.6477234     1.4070035     0.7589886
H           2.4524297     1.5106630     1.8290858
H           1.6879630     1.3320721     0.2254566
H           3.1760883     2.3018933     0.3989213
H           4.0913479     0.9500856    -1.2312500
O           2.5902981    -0.1744447    -2.8037799
C           1.2132023    -1.7523142     0.0426972
H           0.8728122    -2.7825973     0.1794093
H           0.3338281    -1.0926090     0.0376968
H           1.8540779    -1.4830814     0.8812871
C           7.1998046    -2.6813307    -0.9251176
H           8.0548577    -3.3503813    -0.9744676
C           6.6107972    -2.3838269     0.3036396
H           7.0062881    -2.8203630     1.2173054
C           5.5127074    -1.5231139     0.3713004
H           5.0610136    -1.2824146     1.3266950
C           4.9956506    -0.9531474    -0.7953360
C           5.5900537    -1.2517691    -2.0285865
H           5.1850992    -0.8144062    -2.9372871
C           6.6853857    -2.1111546    -2.0921167
H           7.1385454    -2.3341208    -3.0545171
26
180_C10H13NO2_11-0-2-3 (75,) energy =    -594.0691409
N           2.0224772    -1.8029481    -1.0409206
H           1.5665935    -2.2537710    -1.8345182
C           2.6771066    -0.6874460    -1.5731912
C           3.8162402    -0.0576251    -0.7336500
O           3.4709391     0.1911736     0.6199702
C           2.7171128     1.3786166     0.7939670
H           2.5339968     1.4829905     1.8662435
H           1.7504034     1.3374851     0.2689870
H           3.2704234     2.2587154     0.4349212
H           4.0580724     0.8892966    -1.2372025
O           2.5847893    -0.3967079    -2.7569457
C           1.0490568    -1.6773853     0.0568732
H           0.6803208    -2.6764417     0.3053101
H           0.1905363    -1.0441022    -0.2087922
H           1.5418582    -1.2651213     0.9376623
C           7.2681704    -2.6556701    -0.9532226
H           8.1382049    -3.3042225    -1.0135478
C           6.6382537    -2.4374875     0.2724250
H           7.0165629    -2.9167055     1.1718225
C           5.5207917    -1.6041906     0.3541872
H           5.0344782    -1.4265840     1.3063763
C           5.0280573    -0.9789643    -0.7945263
C           5.6610085    -1.1993423    -2.0244611
H           5.2708187    -0.7235273    -2.9202225
C           6.7751735    -2.0335748    -2.1024805
H           7.2596264    -2.1955398    -3.0618051
26
180_C10H13NO2_11-0-2-3 (90,) energy =    -594.0634718
N           2.0512546    -1.8807444    -0.8839627
H           1.7164597    -2.4596062    -1.6566600
C           2.6711568    -0.7847708    -1.5264079
C           3.8139129    -0.0951591    -0.7481632
O           3.4889770     0.1648887     0.6081122
C           2.7983346     1.3881060     0.7952086
H           2.6186896     1.4881561     1.8685935
H           1.8311770     1.4048094     0.2694439
H           3.3971223     2.2434688     0.4495021
H           4.0199545     0.8465076    -1.2763272
O           2.5385638    -0.5714020    -2.7197774
C           0.8849349    -1.6101564    -0.0197927
H           0.4891524    -2.5666650     0.3323722
H           0.0827545    -1.0682637    -0.5413912
H           1.2012887    -1.0336379     0.8515819
C           7.3117777    -2.6241755    -1.0071327
H           8.1935347    -3.2558670    -1.0753182
C           6.6686764    -2.4486874     0.2188976
H           7.0471564    -2.9445234     1.1091489
C           5.5361678    -1.6378407     0.3119496
H           5.0364515    -1.4946991     1.2629124
C           5.0438602    -0.9904315    -0.8246189
C           5.6879052    -1.1703992    -2.0550778
H           5.2958168    -0.6797123    -2.9420696
C           6.8170649    -1.9833478    -2.1452700
H           7.3116723    -2.1133712    -3.1042671
26
180_C10H13NO2_11-0-2-3 (105,) energy =    -594.0692988
N           1.3045008    -1.7905713    -0.1266200
H           1.3538706    -1.1404232     0.6555470
C           2.4986891    -1.6980786    -0.8427030
C           3.3761183    -0.4376044    -0.5968844
O           2.8804368     0.2610286     0.5366739
C           3.2606582     1.6287302     0.5869026
H           2.7855817     2.0552737     1.4735295
H           2.9103035     2.1682501    -0.3060519
H           4.3488425     1.7438356     0.6670276
H           3.1996280     0.1641887    -1.5047007
O           2.7805114    -2.4347136    -1.7683857
C           0.0706401    -1.5246486    -0.8835965
H          -0.7932360    -1.7826756    -0.2646260
H           0.0575964    -2.1565415    -1.7743339
H          -0.0153440    -0.4720566    -1.1909695
C           7.5710633    -1.4549643    -0.3295436
H           8.6233955    -1.7183342    -0.2640358
C           6.8196338    -1.2706526     0.8324765
H           7.2850165    -1.3927860     1.8071269
C           5.4682341    -0.9332009     0.7484137
H           4.8793958    -0.7932367     1.6501375
C           4.8569987    -0.7688500    -0.4997642
C           5.6142150    -0.9555059    -1.6611375
H           5.1408814    -0.8447245    -2.6326480
C           6.9635883    -1.2993933    -1.5768999
H           7.5406571    -1.4436975    -2.4864404
26
180_C10H13NO2_11-0-2-3 (120,) energy =    -594.0764387
N           1.3263973    -1.6859961    -0.1575947
H           1.3250709    -0.9796042     0.5734489
C           2.4996210    -1.6022130    -0.8840397
C           3.4048927    -0.3719266    -0.5996382
O           2.9207888     0.3149491     0.5470315
C           3.3208587     1.6759231     0.6182135
H           2.8605149     2.0933302     1.5169117
H           2.9706412     2.2367667    -0.2615485
H           4.4113604     1.7731754     0.6904863
H           3.2536742     0.2558881    -1.4938676
O           2.7631407    -2.3213722    -1.8326106
C           0.0575469    -1.7029557    -0.8921977
H          -0.7441247    -2.0545791    -0.2363698
H           0.1490160    -2.3948529    -1.7314967
H          -0.2083460    -0.7080653    -1.2768005
C           7.5689276    -1.5066016    -0.3198957
H           8.6134644    -1.7987375    -0.2513916
C           6.8166604    -1.3139568     0.8401272
H           7.2727823    -1.4583652     1.8161424
C           5.4752426    -0.9394511     0.7523145
H           4.8856228    -0.7935504     1.6524929
C           4.8754571    -0.7459679    -0.4971164
C           5.6333778    -0.9414692    -1.6566867
H           5.1682194    -0.8093620    -2.6293630
C           6.9724454    -1.3224181    -1.5687422
H           7.5502825    -1.4733724    -2.4767325
26
180_C10H13NO2_11-0-2-3 (135,) energy =    -594.0828285
N           1.3710197    -1.5747744    -0.2068576
H           1.3437031    -0.8684666     0.5215505
C           2.4910208    -1.4450531    -0.9892085
C           3.4293793    -0.2590024    -0.6425676
O           2.9449258     0.4061042     0.5172445
C           3.3862291     1.7505521     0.6386651
H           2.9265149     2.1529353     1.5445418
H           3.0663629     2.3506467    -0.2265077
H           4.4781542     1.8105082     0.7287703
H           3.3297925     0.4059807    -1.5158479
O           2.7116201    -2.1057308    -1.9926983
C           0.0791867    -1.8387830    -0.8367866
H          -0.5992786    -2.3121268    -0.1208292
H           0.2382583    -2.5200087    -1.6741679
H          -0.3855041    -0.9160021    -1.2107190
C           7.5344512    -1.5795124    -0.2968105
H           8.5638820    -1.9175205    -0.2122565
C           6.7654118    -1.3781510     0.8505359
H           7.1930229    -1.5617547     1.8328802
C           5.4432973    -0.9446275     0.7419181
H           4.8404225    -0.7922745     1.6321261
C           4.8806752    -0.6996686    -0.5155730
C           5.6549356    -0.9045133    -1.6628985
H           5.2166956    -0.7340096    -2.6419571
C           6.9740501    -1.3448360    -1.5540213
H           7.5649580    -1.5024998    -2.4524222
26
180_C10H13NO2_11-0-2-3 (150,) energy =    -594.0876654
N           1.4084373    -1.4874153    -0.2564131
H           1.3547551    -0.8033840     0.4894240
C           2.4662822    -1.2958146    -1.0963912
C           3.4339481    -0.1518337    -0.7020167
O           2.9434203     0.5043602     0.4603695
C           3.4382200     1.8244953     0.6298429
H           2.9735950     2.2218697     1.5354705
H           3.1654781     2.4609062    -0.2253523
H           4.5291891     1.8352301     0.7474600
H           3.3918642     0.5373147    -1.5601819
O           2.6455884    -1.9012295    -2.1439846
C           0.1428082    -2.0028900    -0.7609992
H          -0.3828293    -2.5525803     0.0257607
H           0.3576396    -2.6823805    -1.5870597
H          -0.5066752    -1.1954696    -1.1255449
C           7.4629442    -1.6702430    -0.2705282
H           8.4729546    -2.0575640    -0.1655495
C           6.6715765    -1.4559505     0.8590797
H           7.0628152    -1.6792360     1.8483442
C           5.3742261    -0.9592412     0.7237684
H           4.7533243    -0.7966893     1.5996525
C           4.8600244    -0.6623477    -0.5430606
C           5.6560877    -0.8808490    -1.6730153
H           5.2528792    -0.6713374    -2.6595065
C           6.9496627    -1.3847619    -1.5374037
H           7.5578210    -1.5522241    -2.4224365
26
180_C10H13NO2_11-0-2-3 (165,) energy =    -594.0905203
N           1.5047782    -1.3816803    -0.2649705