26
180_C10H13NO2_0-2-3-21 (-165,) energy =    -594.0838585
N           1.3746371    -1.4820337    -0.9798036
H           1.1529681    -0.4950411    -0.9890723
C           2.6472209    -1.8118836    -0.6032249
C           3.6248243    -0.6097722    -0.6839201
O           3.2142865     0.2586283     0.3746621
C           3.8430101     1.5303830     0.3471379
H           3.4139741     2.1072728     1.1703015
H           3.6458598     2.0540590    -0.6020799
H           4.9289223     1.4533501     0.4853488
H           3.4503568    -0.1001464    -1.6481825
O           2.9891616    -2.9404049    -0.2850595
C           0.2740761    -2.4200144    -0.8304291
H          -0.2079167    -2.3429919     0.1535450
H           0.6761189    -3.4281937    -0.9386349
H          -0.4744292    -2.2410282    -1.6082784
C           7.7718588    -1.7933369    -0.5143884
H           8.8160586    -2.0916401    -0.4697280
C           6.9502103    -1.9496881     0.6058627
H           7.3542627    -2.3733423     1.5215534
C           5.6104843    -1.5719685     0.5509241
H           4.9670226    -1.6991131     1.4153074
C           5.0770289    -1.0269794    -0.6248950
C           5.9063725    -0.8676947    -1.7386459
H           5.5005929    -0.4416615    -2.6541937
C           7.2478734    -1.2531922    -1.6885954
H           7.8810380    -1.1255608    -2.5626625
26
180_C10H13NO2_0-2-3-21 (-150,) energy =    -594.0828492
N           1.4230443    -1.5328412    -1.0909314
H           1.2176616    -0.5905973    -1.3932502
C           2.6213433    -1.7492701    -0.4705047
C           3.6045079    -0.5572564    -0.5972515
O           3.2539330     0.2952424     0.4927997
C           3.8854459     1.5641328     0.4496213
H           3.5113162     2.1267846     1.3086261
H           3.6311791     2.1076402    -0.4748738
H           4.9779447     1.4821347     0.5179401
H           3.4025411    -0.0307236    -1.5469894
O           2.8961959    -2.7816128     0.1218968
C           0.3113821    -2.4576220    -0.9440853
H          -0.3336069    -2.1978944    -0.0940837
H           0.7248724    -3.4521274    -0.7714607
H          -0.2896309    -2.4657374    -1.8584218
C           7.7313755    -1.8248427    -0.5884364
H           8.7698603    -2.1456748    -0.5846197
C           6.9620706    -1.9265056     0.5742956
H           7.4012878    -2.3304324     1.4827114
C           5.6296122    -1.5188274     0.5732807
H           5.0250632    -1.6042416     1.4694571
C           5.0524604    -0.9979059    -0.5928127
C           5.8296639    -0.8928131    -1.7502904
H           5.3896842    -0.4841255    -2.6580714
C           7.1629000    -1.3083781    -1.7528060
H           7.7556185    -1.2218687    -2.6596976
26
180_C10H13NO2_0-2-3-21 (-135,) energy =    -594.0827281
N           1.5017330    -1.5434995    -1.2102568
H           1.3885991    -0.7083075    -1.7661799
C           2.5842954    -1.6310000    -0.3825921
C           3.5880596    -0.4612039    -0.5279275
O           3.3085394     0.3730340     0.5931299
C           3.9659213     1.6277678     0.5447830
H           3.6504426     2.1776265     1.4349622
H           3.6757573     2.1997532    -0.3516528
H           5.0586481     1.5208297     0.5533213
H           3.3749876     0.0946386    -1.4584371
O           2.7532896    -2.5402921     0.4159315
C           0.3987663    -2.4866681    -1.1482475
H          -0.4935572    -2.0361527    -0.6956719
H           0.7220435    -3.3247940    -0.5296017
H           0.1441005    -2.8504002    -2.1497088
C           7.6683714    -1.8720431    -0.6701642
H           8.6941703    -2.2297912    -0.7041239
C           6.9356342    -1.9547685     0.5173515
H           7.3910762    -2.3810012     1.4074266
C           5.6195963    -1.4985653     0.5662677
H           5.0398730    -1.5705864     1.4794339
C           5.0227528    -0.9489943    -0.5767807
C           5.7633013    -0.8632490    -1.7599490
H           5.3083778    -0.4309252    -2.6493426
C           7.0798002    -1.3261427    -1.8110027
H           7.6442186    -1.2536394    -2.7370121
26
180_C10H13NO2_0-2-3-21 (-120,) energy =    -594.0829591
N           1.5877162    -1.6063334    -1.2526205
H           1.5698227    -0.8926402    -1.9660929
C           2.5317266    -1.5272338    -0.2697151
C           3.5516134    -0.3797590    -0.4520293
O           3.3497734     0.4595108     0.6773188
C           4.0465040     1.6906240     0.5997487
H           3.7862465     2.2509364     1.5011403
H           3.7396711     2.2727465    -0.2846170
H           5.1347845     1.5476097     0.5642179
H           3.3203600     0.1839191    -1.3737206
O           2.5859541    -2.2940278     0.6802288
C           0.5301626    -2.6016318    -1.2386257
H          -0.4485250    -2.1462652    -1.0429232
H           0.7578640    -3.3059730    -0.4374606
H           0.4878802    -3.1377379    -2.1932979
C           7.5754888    -1.9299543    -0.7483613
H           8.5865870    -2.3222801    -0.8199542
C           6.8765173    -2.0073017     0.4598392
H           7.3437236    -2.4641504     1.3283588
C           5.5796802    -1.5059975     0.5569811
H           5.0222610    -1.5745343     1.4845028
C           4.9685425    -0.9166554    -0.5587072
C           5.6748699    -0.8373310    -1.7631037
H           5.2094795    -0.3731355    -2.6307957
C           6.9721432    -1.3447913    -1.8617520
H           7.5106519    -1.2763592    -2.8033810
26
180_C10H13NO2_0-2-3-21 (-105,) energy =    -594.0837867
N           1.9534967    -1.5888646    -1.5323284
H           2.3503468    -1.5511659    -2.4603658
C           2.6162929    -0.9636854    -0.5157062
C           3.8810947    -0.1771385    -0.9556791
O           3.9284704     1.0862755    -0.3236219
C           2.8387644     1.9366906    -0.6366835
H           3.0461898     2.8943526    -0.1532668
H           1.8885929     1.5414525    -0.2544143
H           2.7522547     2.0982237    -1.7236142
H           3.8618233    -0.0467691    -2.0529997
O           2.2485674    -0.9913008     0.6509804
C           0.8102845    -2.4556524    -1.3033314
H          -0.0080018    -2.2030593    -1.9862419
H           0.4842382    -2.2985015    -0.2742907
H           1.0699656    -3.5135042    -1.4358781
C           7.4216946    -2.3680795     0.1875149
H           8.3119347    -2.9192289     0.4790795
C           6.5885578    -1.8134375     1.1633451
H           6.8294113    -1.9356807     2.2161020
C           5.4459143    -1.1059636     0.7948051
H           4.7869286    -0.6815772     1.5440867
C           5.1292349    -0.9406176    -0.5602912
C           5.9664940    -1.4954237    -1.5325498
H           5.7324604    -1.3599692    -2.5866678
C           7.1084632    -2.2089855    -1.1623729
H           7.7538872    -2.6320916    -1.9276520
26
180_C10H13NO2_0-2-3-21 (-90,) energy =    -594.0845065
N           2.0734565    -1.7053708    -1.4874802
H           2.6040208    -1.8184697    -2.3401368
C           2.5709749    -0.8735123    -0.5255471
C           3.8517897    -0.1027853    -0.9488907
O           3.9437038     1.1390952    -0.2895948
C           2.9112759     2.0535172    -0.6205212
H           3.1495016     2.9867012    -0.1044121
H           1.9295829     1.6977804    -0.2851907
H           2.8788481     2.2456212    -1.7054411
H           3.8275804     0.0484786    -2.0435868
O           2.0677534    -0.7358872     0.5811001
C           0.9774740    -2.6247016    -1.2325802
H           0.2279495    -2.5627279    -2.0289416
H           0.5225342    -2.3331815    -0.2850396
H           1.3277387    -3.6616989    -1.1539160
C           7.3153789    -2.4466631     0.1285412
H           8.1850759    -3.0366044     0.4056202
C           6.4810285    -1.9198545     1.1188290
H           6.7003864    -2.1016229     2.1676453
C           5.3645218    -1.1634784     0.7681019
H           4.7058504    -0.7561307     1.5282126
C           5.0757163    -0.9202188    -0.5815761
C           5.9150686    -1.4460479    -1.5679787
H           5.7059340    -1.2470577    -2.6173367
C           7.0305651    -2.2094781    -1.2162261
H           7.6785903    -2.6096429    -1.9915794
26
180_C10H13NO2_0-2-3-21 (-75,) energy =    -594.0846733
N           2.1757762    -1.7890293    -1.4411837
H           2.8676710    -2.0436718    -2.1333529
C           2.4939714    -0.7892951    -0.5655909
C           3.7983009    -0.0216629    -0.9301183
O           3.9045367     1.1847821    -0.2146502
C           2.9522610     2.1712239    -0.5831877
H           3.2009360     3.0670063    -0.0088461
H           1.9304618     1.8587088    -0.3422808
H           3.0213258     2.4076845    -1.6575544
H           3.7847453     0.1759779    -2.0172062
O           1.8226039    -0.5073236     0.4168459
C           1.0840411    -2.7163517    -1.1951364
H           0.5077744    -2.8816057    -2.1115613
H           0.4390514    -2.2690685    -0.4377950
H           1.4457424    -3.6837106    -0.8231682
C           7.2017804    -2.4919861     0.0600325
H           8.0545149    -3.1155625     0.3150536
C           6.3787370    -1.9815346     1.0685030
H           6.5910696    -2.2092368     2.1097438
C           5.2838590    -1.1828677     0.7448843
H           4.6384873    -0.7829807     1.5209970
C           5.0045188    -0.8790757    -0.5946455
C           5.8347175    -1.3862179    -1.5986866
H           5.6370549    -1.1360586    -2.6393953
C           6.9281774    -2.1934760    -1.2745583
H           7.5689511    -2.5782555    -2.0635816
26
180_C10H13NO2_0-2-3-21 (-60,) energy =    -594.0846737
N           2.2787498    -1.8722778    -1.3575462
H           3.0957110    -2.2270266    -1.8367178
C           2.4285301    -0.7386063    -0.6099344
C           3.7567922     0.0334273    -0.8855670
O           3.8473447     1.1953255    -0.0981349
C           2.9945868     2.2562573    -0.5062066
H           3.2310634     3.1040524     0.1416738
H           1.9386987     1.9931430    -0.3927937
H           3.1951593     2.5421339    -1.5516757
H           3.7630150     0.2946506    -1.9588848
O           1.5863031    -0.3307984     0.1772815
C           1.1440546    -2.7644940    -1.1891354
H           0.7824364    -3.1092286    -2.1635551
H           0.3547905    -2.2035570    -0.6870940
H           1.3977086    -3.6385419    -0.5751900
C           7.1485653    -2.4961780    -0.0005226
H           7.9963975    -3.1363466     0.2280420
C           6.3728094    -1.9632657     1.0336853
H           6.6175937    -2.1890545     2.0682252
C           5.2838703    -1.1435514     0.7449718
H           4.6811301    -0.7222787     1.5437849
C           4.9615335    -0.8395418    -0.5849696
C           5.7474925    -1.3668647    -1.6149491
H           5.5216093    -1.1139925    -2.6493277
C           6.8344531    -2.1967140    -1.3256649
H           7.4397190    -2.5960805    -2.1351863
26
180_C10H13NO2_0-2-3-21 (-45,) energy =    -594.0846563
N           2.3382375    -1.9480633    -1.2537975
H           3.2192526    -2.3564011    -1.5347852
C           2.3616056    -0.7052131    -0.6913258
C           3.7094440     0.0649560    -0.8679149
O           3.7647842     1.1843114    -0.0150937
C           3.0182495     2.3115356    -0.4545241
H           3.2298973     3.1129476     0.2581112
H           1.9449416     2.1041586    -0.4680852
H           3.3472055     2.6326293    -1.4563668
H           3.7438663     0.3868953    -1.9240246
O           1.3921801    -0.1921263    -0.1487085
C           1.1662401    -2.8040715    -1.1922155
H           0.9896515    -3.2802945    -2.1625433
H           0.3116123    -2.1774497    -0.9339239
H           1.2715659    -3.5854024    -0.4284573
C           7.1205505    -2.4658918    -0.0485277
H           7.9731719    -3.1060466     0.1614401
C           6.3810696    -1.9126150     1.0013557
H           6.6598737    -2.1225993     2.0306111
C           5.2864224    -1.0923437     0.7360235
H           4.7158474    -0.6527859     1.5482196
C           4.9199268    -0.8073853    -0.5868492
C           5.6709999    -1.3549872    -1.6332766
H           5.4113546    -1.1186704    -2.6635373
C           6.7637397    -2.1852638    -1.3668671
H           7.3405832    -2.5989966    -2.1897888
26
180_C10H13NO2_0-2-3-21 (-30,) energy =    -594.0845827
N           2.3689150    -1.9949568    -1.1719277
H           3.2760061    -2.4292084    -1.2689942
C           2.3206097    -0.6777915    -0.8271286
C           3.6818101     0.0860583    -0.8869775
O           3.6846708     1.1550866     0.0344410
C           3.0320406     2.3393078    -0.4057757
H           3.2129799     3.0907780     0.3674992
H           1.9575107     2.1841205    -0.5299326
H           3.4665502     2.6954350    -1.3540256
H           3.7582379     0.4734003    -1.9182634
O           1.2807623    -0.0916489    -0.5520434
C           1.1838966    -2.8340741    -1.1988075
H           1.1517603    -3.4238350    -2.1213810
H           0.3132262    -2.1784467    -1.1553738
H           1.1526527    -3.5179034    -0.3410485
C           7.0980108    -2.4453595    -0.0856078
H           7.9522689    -3.0850021     0.1191312
C           6.3875958    -1.8638245     0.9686129
H           6.6898168    -2.0506602     1.9957528
C           5.2914536    -1.0424795     0.7108594
H           4.7452158    -0.5788215     1.5259166
C           4.8937133    -0.7856572    -0.6087064
C           5.6155784    -1.3639519    -1.6602924
H           5.3288225    -1.1549254    -2.6891366
C           6.7102567    -2.1934371    -1.4014459
H           7.2642271    -2.6298132    -2.2283813
26
180_C10H13NO2_0-2-3-21 (-15,) energy =    -594.0846592
N           2.3798218    -1.9994729    -1.0877720
H           3.2833834    -2.4437841    -1.0085266
C           2.3161405    -0.6447537    -0.9774389
C           3.6793376     0.1122357    -0.9177486
O           3.6178508     1.1213328     0.0725390
C           3.0077395     2.3408955    -0.3315264
H           3.1509122     3.0399978     0.4970367
H           1.9417692     2.2105724    -0.5331047
H           3.5031053     2.7468015    -1.2282463
H           3.8011290     0.5686325    -1.9148430
O           1.2618379    -0.0183722    -0.9721816
C           1.1911832    -2.8294701    -1.1687018
H           1.2709578    -3.5367980    -2.0015380
H           0.3382113    -2.1694790    -1.3320267
H           1.0297333    -3.3928256    -0.2410850
C           7.0892270    -2.4292625    -0.1155712
H           7.9424952    -3.0712930     0.0859329
C           6.4043483    -1.8185393     0.9381665
H           6.7253260    -1.9848906     1.9631536
C           5.3101597    -0.9922707     0.6833038
H           4.7846592    -0.5043137     1.4972722
C           4.8885393    -0.7613500    -0.6333353
C           5.5836807    -1.3725091    -1.6853655
H           5.2738942    -1.1898560    -2.7124455
C           6.6765351    -2.2038723    -1.4293336
H           7.2096171    -2.6646442    -2.2567478
26
180_C10H13NO2_0-2-3-21 (0,) energy =    -594.0851022
N           2.3695443    -1.9540451    -1.0060689
H           3.2424940    -2.3909617    -0.7470497
C           2.3410054    -0.6007113    -1.1335797
C           3.6944872     0.1507927    -0.9597052
O           3.5622840     1.0932454     0.0932041
C           2.9265060     2.3169884    -0.2551131
H           3.0148949     2.9634102     0.6224742
H           1.8738917     2.1688060    -0.5099027
H           3.4391540     2.7952572    -1.1046499
H           3.8587040     0.6747805    -1.9151995
O           1.3209822     0.0325444    -1.3895487
C           1.1740163    -2.7712834    -1.1086797
H           1.3329588    -3.6018790    -1.8052454
H           0.3702232    -2.1340546    -1.4797567
H           0.8813191    -3.1793350    -0.1331739
C           7.0874100    -2.4093216    -0.1482094
H           7.9371287    -3.0561332     0.0530236
C           6.4181521    -1.7811127     0.9041631
H           6.7470613    -1.9374648     1.9282511
C           5.3285722    -0.9469144     0.6495213
H           4.8156137    -0.4440518     1.4620120
C           4.8967434    -0.7280545    -0.6653849
C           5.5751555    -1.3605564    -1.7165503
H           5.2527989    -1.1921412    -2.7420984
C           6.6631665    -2.1965378    -1.4613014
H           7.1832045    -2.6734066    -2.2878994
26
180_C10H13NO2_0-2-3-21 (15,) energy =    -594.0857836
N           2.3593716    -1.8780306    -0.9102129
H           3.1801826    -2.2910794    -0.4904592
C           2.4107883    -0.5658299    -1.2606692
C           3.7460777     0.1796734    -0.9785760
O           3.5473214     1.0535895     0.1244993
C           2.8504991     2.2574437    -0.1731149
H           2.8532770     2.8434748     0.7498289
H           1.8222631     2.0657803    -0.4939543
H           3.3690549     2.8243825    -0.9617061
H           3.9473449     0.7637065    -1.8899344
O           1.4646972     0.0443804    -1.7521897
C           1.1523563    -2.6740887    -1.0366389
H           1.3553790    -3.6014507    -1.5838303
H           0.4228542    -2.0796053    -1.5883365
H           0.7344087    -2.9278823    -0.0544659
C           7.1079794    -2.4198084    -0.1681374
H           7.9503363    -3.0771308     0.0300974
C           6.4448681    -1.7897553     0.8859873
H           6.7712419    -1.9540675     1.9096525
C           5.3646381    -0.9409599     0.6339625
H           4.8572967    -0.4351045     1.4479794
C           4.9370536    -0.7121828    -0.6800336
C           5.6084170    -1.3484588    -1.7337817
H           5.2867959    -1.1749279    -2.7586937
C           6.6866668    -2.1960008    -1.4810894
H           7.2014466    -2.6761370    -2.3090619
26
180_C10H13NO2_0-2-3-21 (30,) energy =    -594.0861901
N           2.3559549    -1.8068593    -0.8126728
H           3.1065212    -2.1780369    -0.2468020
C           2.5182787    -0.5727318    -1.3587917
C           3.8251565     0.1737266    -0.9732004
O           3.5647066     0.9780566     0.1693251
C           2.8039409     2.1512008    -0.0902081
H           2.7250657     2.6788860     0.8637113
H           1.8037521     1.9176472    -0.4709208
H           3.3154555     2.7967078    -0.8201952
H           4.0544158     0.8116575    -1.8398505
O           1.6774739    -0.0197875    -2.0631782
C           1.1432435    -2.5858178    -0.9792976
H           1.3702409    -3.5807899    -1.3788655
H           0.5044365    -2.0509238    -1.6834930
H           0.6079920    -2.7011740    -0.0285900
C           7.1648251    -2.4590100    -0.1865042
H           8.0016869    -3.1252614     0.0049895
C           6.5114265    -1.8306094     0.8737784
H           6.8396492    -2.0036942     1.8954397
C           5.4377826    -0.9697315     0.6306366
H           4.9391254    -0.4630881     1.4496064
C           5.0080786    -0.7297876    -0.6800153
C           5.6703067    -1.3643384    -1.7406058
H           5.3452914    -1.1818185    -2.7628771
C           6.7414076    -2.2222914    -1.4971352
H           7.2487872    -2.7021939    -2.3298228
26
180_C10H13NO2_0-2-3-21 (45,) energy =    -594.0863107
N           2.3595275    -1.7898685    -0.6770638
H           3.0086594    -2.0758243     0.0430900
C           2.6519519    -0.6671541    -1.3864140
C           3.9228614     0.0930813    -0.9152257
O           3.6239167     0.8246704     0.2645282
C           2.7724150     1.9425883     0.0545967
H           2.6474742     2.4206343     1.0292394
H           1.7912930     1.6484403    -0.3385336
H           3.2271457     2.6588539    -0.6458003
H           4.1602441     0.7814361    -1.7397253
O           1.9524873    -0.2247830    -2.2926113
C           1.1625422    -2.5772027    -0.9037860
H           1.4151277    -3.6165786    -1.1441033
H           0.6338927    -2.1319771    -1.7478742
H           0.5062231    -2.5683168    -0.0248461
C           7.2714193    -2.5513226    -0.2052069
H           8.1109315    -3.2201612    -0.0354242
C           6.6652442    -1.8974842     0.8669857
H           7.0336499    -2.0530982     1.8777253
C           5.5878858    -1.0333835     0.6503867
H           5.1267783    -0.5072553     1.4789242
C           5.1068832    -0.8180172    -0.6456962
C           5.7219785    -1.4768140    -1.7198777
H           5.3556442    -1.3132832    -2.7313121
C           6.7964471    -2.3365978    -1.5021736
H           7.2660272    -2.8370072    -2.3448885
26
180_C10H13NO2_0-2-3-21 (60,) energy =    -594.0872505
N           2.2743906    -1.6355657    -0.6508039
H           2.7223733    -1.7385968     0.2495692
C           2.7421402    -0.6611109    -1.4764485
C           3.9660979     0.1105363    -0.9125631
O           3.6258368     0.7629522     0.3027716
C           2.7025716     1.8278848     0.1388315
H           2.5574822     2.2693400     1.1278175
H           1.7342804     1.4796342    -0.2468070
H           3.0955798     2.5934209    -0.5461328
H           4.2230231     0.8491234    -1.6858265
O           2.2739840    -0.4046093    -2.5801368
C           1.1204856    -2.4552727    -0.9674305
H           1.3798170    -3.5203269    -0.9519699
H           0.7916963    -2.1816669    -1.9711050
H           0.2987478    -2.2825118    -0.2615072
C           7.3114491    -2.5490727    -0.2428439
H           8.1518396    -3.2195511    -0.0840641
C           6.7747922    -1.8303045     0.8245704
H           7.1976654    -1.9365055     1.8203604
C           5.6958608    -0.9645958     0.6232569
H           5.2873909    -0.3933579     1.4491430
C           5.1434187    -0.8155561    -0.6522537
C           5.6881338    -1.5381919    -1.7235155
H           5.2620938    -1.4260262    -2.7181923
C           6.7645361    -2.3987180    -1.5204261
H           7.1782523    -2.9515471    -2.3596809
26
180_C10H13NO2_0-2-3-21 (75,) energy =    -594.0894242
N           2.1320283    -1.5772010    -0.5471819
H           2.4080782    -1.4817869     0.4210839
C           2.7549853    -0.7684584    -1.4445634
C           3.9263214     0.0440970    -0.8378579
O           3.5585553     0.6245376     0.4070634
C           2.6490050     1.7061520     0.2790622
H           2.4644232     2.0823524     1.2882662
H           1.6952819     1.3903588    -0.1674052
H           3.0746391     2.5127504    -0.3352564
H           4.1606409     0.8273562    -1.5730050
O           2.4948007    -0.7210404    -2.6418622
C           1.0311334    -2.4529704    -0.8999684
H           1.2609708    -3.4934403    -0.6425921
H           0.8850996    -2.3753586    -1.9784756
H           0.1044524    -2.1605588    -0.3909470
C           7.3720684    -2.5139948    -0.2794183
H           8.2389056    -3.1562212    -0.1481318
C           6.8608450    -1.7947575     0.8003987
H           7.3297183    -1.8735119     1.7780090
C           5.7480827    -0.9657259     0.6354559
H           5.3569040    -0.3979570     1.4717949
C           5.1358741    -0.8543957    -0.6161337
C           5.6533788    -1.5771009    -1.7005620
H           5.1756080    -1.4947031    -2.6735574
C           6.7642213    -2.4013540    -1.5326123
H           7.1559801    -2.9558719    -2.3812896
26
180_C10H13NO2_0-2-3-21 (90,) energy =    -594.0909593
N           1.9997998    -1.5148351    -0.4899451
H           2.1977993    -1.3151542     0.4816033
C           2.7878738    -0.8988594    -1.4079803
C           3.9241035    -0.0509228    -0.7867935
O           3.5434169     0.5001475     0.4675612
C           2.6980802     1.6352608     0.3528529
H           2.4913643     1.9775054     1.3698465
H           1.7490670     1.3905904    -0.1449834
H           3.1927126     2.4425828    -0.2058498
H           4.1291176     0.7525121    -1.5089202
O           2.6784306    -1.0222134    -2.6233805
C           0.9231068    -2.4177845    -0.8484073
H           1.1150820    -3.4309311    -0.4751432
H           0.8682037    -2.4451734    -1.9378717
H          -0.0364909    -2.0705405    -0.4476906
C           7.4875706    -2.4643569    -0.3082616
H           8.3844194    -3.0677405    -0.1951673
C           6.9573608    -1.7818213     0.7862638
H           7.4403558    -1.8509954     1.7577374
C           5.8062750    -1.0031189     0.6437425
H           5.3990430    -0.4651835     1.4920226
C           5.1743698    -0.9042148    -0.5994651
C           5.7093719    -1.5908852    -1.6985276
H           5.2131493    -1.5218011    -2.6622148
C           6.8590468    -2.3652252    -1.5519986
H           7.2644309    -2.8921574    -2.4118406
26
180_C10H13NO2_0-2-3-21 (105,) energy =    -594.0911213
N           1.7769340    -1.6806171    -0.3240927
H           1.7744731    -1.0968276     0.5013729
C           2.6486083    -1.3363701    -1.3048725
C           3.6676580    -0.2456652    -0.9088845
O           3.1797345     0.4521007     0.2323055
C           3.7628339     1.7327651     0.4183577
H           3.2941488     2.1673636     1.3047757
H           3.5686467     2.3834739    -0.4470857
H           4.8469860     1.6669296     0.5776115
H           3.7180992     0.4350366    -1.7707659
O           2.7029488    -1.8517863    -2.4151834
C           0.7354631    -2.6716307    -0.5183868
H           0.7775428    -3.4394644     0.2625185
H           0.9029919    -3.1383571    -1.4902099
H          -0.2617250    -2.2139771    -0.5095797
C           7.5305882    -2.0973330    -0.2844196
H           8.4983348    -2.5676863    -0.1316751
C           6.7223233    -1.7834122     0.8092043
H           7.0577674    -2.0111812     1.8177834
C           5.4788315    -1.1800177     0.6134937
H           4.8459951    -0.9378366     1.4618820
C           5.0378160    -0.8742716    -0.6782558
C           5.8503813    -1.1938894    -1.7724230
H           5.4992705    -0.9788624    -2.7777145
C           7.0889696    -1.8042927    -1.5766420
H           7.7106426    -2.0486719    -2.4339503
26
180_C10H13NO2_0-2-3-21 (120,) energy =    -594.0913658
N           1.6638625    -1.5882174    -0.3458551
H           1.6288130    -0.9424010     0.4309191
C           2.6925137    -1.4361957    -1.2149302
C           3.7008114    -0.3241052    -0.8416325
O           3.2309403     0.3736658     0.3058821
C           3.7761567     1.6760815     0.4529017
H           3.3283645     2.1064721     1.3520119
H           3.5271664     2.3084371    -0.4122977
H           4.8670252     1.6468256     0.5702251
H           3.7108498     0.3550502    -1.7082781
O           2.8589637    -2.0957701    -2.2340392
C           0.6175092    -2.5740335    -0.5350358
H           0.5363427    -3.2316830     0.3381912
H           0.8812992    -3.1699861    -1.4101421
H          -0.3552700    -2.0972001    -0.7081848
C           7.6377289    -2.0431925    -0.3223795
H           8.6246779    -2.4795886    -0.1934533
C           6.8436091    -1.7656992     0.7912440
H           7.2084947    -1.9877633     1.7908464
C           5.5756981    -1.2055649     0.6265885
H           4.9529065    -0.9910789     1.4898264
C           5.0952495    -0.9086387    -0.6531601
C           5.8942348    -1.1909366    -1.7668605
H           5.5149290    -0.9814635    -2.7627298
C           7.1579684    -1.7576060    -1.6025945
H           7.7690323    -1.9739360    -2.4749737
26
180_C10H13NO2_0-2-3-21 (135,) energy =    -594.0909229
N           1.5103600    -1.5409004    -0.4812040
H           1.4311354    -0.8348670     0.2377716
C           2.6748106    -1.5679637    -1.1754235
C           3.6588915    -0.4228979    -0.8271394
O           3.1786604     0.2792677     0.3138581
C           3.6824720     1.6019294     0.4298740
H           3.2313597     2.0343078     1.3263496
H           3.4038498     2.2095844    -0.4441444
H           4.7747872     1.6091758     0.5346413
H           3.6320010     0.2461775    -1.7032883
O           2.9481852    -2.3707726    -2.0589536
C           0.4616775    -2.5236617    -0.6730646
H           0.3352409    -3.1541216     0.2158925
H           0.7507102    -3.1534582    -1.5159281
H          -0.4944574    -2.0366506    -0.8973350
C           7.6736789    -1.9626160    -0.3552945
H           8.6811819    -2.3534729    -0.2396459
C           6.8800704    -1.7216888     0.7671785
H           7.2669097    -1.9269398     1.7620923
C           5.5862347    -1.2198734     0.6171751
H           4.9643115    -1.0340834     1.4877517
C           5.0771503    -0.9462901    -0.6568184
C           5.8761005    -1.1902106    -1.7789254
H           5.4798609    -0.9953288    -2.7713493
C           7.1662838    -1.6981952    -1.6291883
H           7.7766019    -1.8857278    -2.5086768
26
180_C10H13NO2_0-2-3-21 (150,) energy =    -594.0897998
N           1.4444702    -1.4788891    -0.6199110
H           1.3361543    -0.7162197     0.0350295
C           2.6990998    -1.6781057    -1.1018758
C           3.6775268    -0.5127776    -0.8026575
O           3.2028283     0.2044671     0.3314941
C           3.7004816     1.5320503     0.4210595
H           3.2492870     1.9785706     1.3105628
H           3.4169907     2.1217501    -0.4638249
H           4.7928673     1.5467702     0.5226541
H           3.6142314     0.1394487    -1.6915043
O           3.0355300    -2.6209929    -1.8056056
C           0.3851151    -2.4561071    -0.7852998
H           0.2012692    -3.0194871     0.1388078
H           0.6961663    -3.1534659    -1.5646530
H          -0.5455813    -1.9642211    -1.0883714
C           7.7427867    -1.9319481    -0.4206103
H           8.7637649    -2.2924614    -0.3266887
C           6.9656720    -1.7196079     0.7192435
H           7.3789182    -1.9163847     1.7051847
C           5.6545157    -1.2572664     0.5976484
H           5.0446385    -1.0935584     1.4812783
C           5.1110279    -0.9954490    -0.6645021
C           5.8941928    -1.2093520    -1.8030505
H           5.4742656    -1.0190218    -2.7871483
C           7.2021545    -1.6781401    -1.6828232
H           7.7998926    -1.8432241    -2.5753452
26
180_C10H13NO2_0-2-3-21 (165,) energy =    -594.0879414
N           1.3665488    -1.3889520    -0.7218283