27
202_C10H13NO2S_6-11-12-19 (-165,) energy =    -992.2082028
C           0.7372286    -0.5440213    -0.8534909
H           1.3547145    -1.1543072    -1.5042408
C          -0.0144029     0.5144266    -1.3600464
H           0.0181246     0.7390622    -2.4223611
C          -0.8135386     1.2797944    -0.5048550
H          -1.4001536     2.1022295    -0.9050929
C           0.6845420    -0.8167296     0.5162446
C          -0.8649814     0.9891104     0.8592282
H          -1.4913849     1.5811776     1.5203523
C          -0.1134153    -0.0665237     1.3796023
H          -0.1400980    -0.3169326     2.4345096
S           1.6134816    -2.2083468     1.1694255
N           3.2020131    -1.7016538     0.8892561
C           3.6540643    -0.5070766     1.6488436
H           3.2867148     0.4023228     1.1649055
C           5.1781139    -0.6444986     1.6133751
H           5.6638567    -0.0413620     2.3864351
H           5.5629408    -0.3239381     0.6381891
H           3.2871190    -0.5289856     2.6844847
C           4.2310588    -2.7883966     0.9999752
H           4.5416602    -3.0682902    -0.0115327
H           3.8285561    -3.6835694     1.4818678
C           5.3786630    -2.1555852     1.8063506
H           6.3589490    -2.5086620     1.4722812
H           5.2751575    -2.4097409     2.8675145
O           1.3158435    -2.2930575     2.6098840
O           1.4122941    -3.3858533     0.3186180
27
202_C10H13NO2S_6-11-12-19 (-150,) energy =    -992.2088540
C           0.7192377    -0.6234850    -0.8250881
H           1.3313774    -1.2823455    -1.4321208
C          -0.0264249     0.4005607    -1.4050223
H           0.0070031     0.5485988    -2.4806794
C          -0.8192892     1.2309068    -0.6061576
H          -1.4001844     2.0272398    -1.0634478
C           0.6645779    -0.8009146     0.5600436
C          -0.8713812     1.0377337     0.7747921
H          -1.4925899     1.6790309     1.3935972
C          -0.1275353     0.0148178     1.3673689
H          -0.1580484    -0.1616998     2.4370074
S           1.5965301    -2.1433697     1.3081841
N           3.1831839    -1.6393849     1.0522036
C           3.6910478    -0.5436609     1.9114540
H           3.2822941     0.4152164     1.5773805
C           5.2074686    -0.6551394     1.7300179
H           5.7561738    -0.1618923     2.5380523
H           5.5087852    -0.1939148     0.7821661
H           3.4069550    -0.6981707     2.9610982
C           4.2207821    -2.7046522     0.8908457
H           4.4466321    -2.8121077    -0.1755161
H           3.8688035    -3.6733800     1.2530393
C           5.4280331    -2.1759751     1.6855567
H           6.3790302    -2.4613091     1.2256727
H           5.4133126    -2.5824184     2.7035089
O           1.2613750    -2.1549987     2.7414776
O           1.4263341    -3.3570834     0.5019987
27
202_C10H13NO2S_6-11-12-19 (-135,) energy =    -992.2090105
C           0.5151937    -0.7758530    -0.8861460
H           0.9907570    -1.5537249    -1.4743358
C          -0.2158863     0.2419680    -1.4955979
H          -0.3055380     0.2674167    -2.5779503
C          -0.8383692     1.2222128    -0.7167945
H          -1.4084891     2.0126099    -1.1972849
C           0.6150339    -0.7980437     0.5072613
C          -0.7381943     1.1835346     0.6747393
H          -1.2321723     1.9390433     1.2792084
C          -0.0106225     0.1669427     1.2970630
H           0.0612771     0.1048927     2.3775440
S           1.5609501    -2.1096630     1.2928519
N           3.1454928    -1.5810272     1.1184995
C           3.6758673    -0.6282785     2.1202606
H           3.2683431     0.3733632     1.9452596
C           5.1902231    -0.7090536     1.8944851
H           5.7541189    -0.3804739     2.7727384
H           5.4802670    -0.0752705     1.0480610
H           3.4064130    -0.9385794     3.1375140
C           4.1942087    -2.5410800     0.6717477
H           4.4055256    -2.3715326    -0.3910372
H           3.8620633    -3.5743346     0.7855998
C           5.4055440    -2.1920402     1.5513396
H           6.3543759    -2.3841360     1.0411231
H           5.3883158    -2.7933719     2.4680046
O           1.1816499    -2.1157972     2.7132532
O           1.4364568    -3.3202868     0.4732083
27
202_C10H13NO2S_6-11-12-19 (-120,) energy =    -992.2090513
C           0.4767033    -0.8749017    -0.8540299
H           0.9045867    -1.7131366    -1.3938931
C          -0.2326409     0.1234843    -1.5198573
H          -0.3506633     0.0722942    -2.5986136
C          -0.7978049     1.1812065    -0.8018822
H          -1.3515709     1.9557170    -1.3254310
C           0.6129454    -0.7998796     0.5343115
C          -0.6626920     1.2395935     0.5863670
H          -1.1139339     2.0547881     1.1450345
C           0.0435046     0.2444994     1.2645352
H           0.1382983     0.2585833     2.3449746
S           1.5506198    -2.0724545     1.3928363
N           3.1364602    -1.5642841     1.2590068
C           3.7170569    -0.7052041     2.3139712
H           3.3031606     0.3078919     2.2585669
C           5.2186298    -0.7513899     1.9981676
H           5.8291041    -0.5435513     2.8821151
H           5.4662195    -0.0056994     1.2333155
H           3.4989144    -1.1106601     3.3087240
C           4.1620829    -2.3966393     0.5833039
H           4.3112480    -2.0394986    -0.4443548
H           3.8485759    -3.4405579     0.5378754
C           5.4167417    -2.1705499     1.4404692
H           6.3389092    -2.2822992     0.8619997
H           5.4425182    -2.8961920     2.2620496
O           1.1519201    -2.0095306     2.8047980
O           1.4327792    -3.3117004     0.6161680
27
202_C10H13NO2S_6-11-12-19 (-105,) energy =    -992.2091050
C           0.4377606    -0.9849882    -0.8324524
H           0.8175260    -1.8736956    -1.3252863
C          -0.2374577     0.0026929    -1.5492841
H          -0.3748476    -0.1085823    -2.6212346
C          -0.7447515     1.1253708    -0.8903204
H          -1.2727594     1.8907853    -1.4524316
C           0.5994451    -0.8334274     0.5466847
C          -0.5860776     1.2605145     0.4905848
H          -0.9941473     2.1264969     1.0042812
C           0.0869329     0.2784840     1.2184098
H           0.1966423     0.3538599     2.2950017
S           1.5063305    -2.0835587     1.4701912
N           3.0967680    -1.6043582     1.3917036
C           3.7171713    -0.8433185     2.4961418
H           3.2814810     0.1588216     2.5754944
C           5.1984643    -0.8105933     2.0883864
H           5.8587492    -0.7128849     2.9553719
H           5.3864033     0.0411695     1.4239302
H           3.5659025    -1.3565299     3.4522512
C           4.0880961    -2.2715247     0.5216947
H           4.1569856    -1.7536756    -0.4454167
H           3.8014895    -3.3080954     0.3369111
C           5.3912296    -2.1306920     1.3227551
H           6.2763191    -2.1303896     0.6793262
H           5.4847285    -2.9648191     2.0280717
O           1.0824421    -1.9698743     2.8701962
O           1.3894232    -3.3402161     0.7219732
27
202_C10H13NO2S_6-11-12-19 (-90,) energy =    -992.2096544
C           0.5883398    -1.0183128    -0.7620177
H           0.9253247    -1.9074228    -1.2846000
C           0.0425408     0.0611763    -1.4561743
H          -0.0318676     0.0230322    -2.5393915
C          -0.4182459     1.1821695    -0.7607767
H          -0.8457768     2.0193438    -1.3057142
C           0.6684113    -0.9617677     0.6326916
C          -0.3437882     1.2236702     0.6330659
H          -0.7177879     2.0885914     1.1737821
C           0.1994267     0.1490496     1.3389644
H           0.2372026     0.1503972     2.4230168
S           1.4299986    -2.3278382     1.5256618
N           3.0545423    -2.0045005     1.5580219
C           3.6198538    -0.9362961     2.4068014
H           3.0096678    -0.0255349     2.3700688
C           5.0197632    -0.7140630     1.8011576
H           5.7584418    -0.4428805     2.5610729
H           4.9825975     0.0992215     1.0668493
H           3.6607771    -1.2736011     3.4478804
C           3.9826267    -2.4630338     0.5108982
H           3.7939176    -1.9575691    -0.4494907
H           3.8804696    -3.5389078     0.3605308
C           5.3383730    -2.0429105     1.0924129
H           6.1082049    -1.9440159     0.3212205
H           5.6761526    -2.7911003     1.8185056
O           0.9532175    -2.2412920     2.9085357
O           1.2661565    -3.5346157     0.7108178
27
202_C10H13NO2S_6-11-12-19 (-75,) energy =    -992.2101734
C           0.5719595    -1.1803169    -0.6996229
H           0.8712621    -2.0974758    -1.1956574
C           0.0743470    -0.0983101    -1.4260790
H           0.0044256    -0.1631192    -2.5083036
C          -0.3449564     1.0584687    -0.7643413
H          -0.7353548     1.8971267    -1.3342849
C           0.6470334    -1.0891995     0.6937731
C          -0.2779609     1.1342607     0.6286083
H          -0.6215840     2.0272993     1.1431095
C           0.2182804     0.0587773     1.3665069
H           0.2481754     0.0875694     2.4504580
S           1.3489245    -2.4564693     1.6329476
N           2.9944537    -2.2044856     1.6759279
C           3.5655010    -1.1372245     2.5322845
H           2.9190433    -0.2521078     2.5669637
C           4.9222680    -0.8231433     1.8661092
H           5.7050832    -0.6232870     2.6035179
H           4.8291213     0.0666018     1.2326987
H           3.6714162    -1.5149071     3.5534517
C           3.8283371    -2.4605273     0.4878424
H           3.5267845    -1.8340130    -0.3673830
H           3.7490531    -3.5092820     0.1967176
C           5.2173589    -2.0560319     0.9920933
H           5.9117416    -1.8442821     0.1734948
H           5.6392853    -2.8653764     1.5983370
O           0.8768254    -2.3189207     3.0125850
O           1.1399913    -3.6739697     0.8456416
27
202_C10H13NO2S_6-11-12-19 (-60,) energy =    -992.2092916
C           0.5591982    -1.2501329    -0.6974795
H           0.8147504    -2.2028352    -1.1488207
C           0.0755796    -0.1943504    -1.4708174
H          -0.0271647    -0.3150650    -2.5456109
C          -0.2876443     1.0100470    -0.8638240
H          -0.6674172     1.8272840    -1.4708227
C           0.6767790    -1.0835450     0.6856149
C          -0.1782986     1.1614019     0.5205705
H          -0.4794887     2.0927781     0.9917807
C           0.3050885     0.1136458     1.3048898
H           0.3663456     0.2021806     2.3843979
S           1.3474481    -2.4206664     1.6901060
N           3.0105499    -2.2323956     1.7074852
C           3.6200167    -1.2577159     2.6535983
H           2.9653175    -0.3984703     2.8357634
C           4.9350087    -0.8378157     1.9622264
H           5.7600233    -0.7407027     2.6738571
H           4.8054243     0.1340925     1.4722454
H           3.7859182    -1.7562448     3.6125585
C           3.7614857    -2.2697245     0.4372232
H           3.3941916    -1.5179787    -0.2794643
H           3.6717688    -3.2591243    -0.0166514
C           5.1792839    -1.9261628     0.9012301
H           5.8158883    -1.5878149     0.0781660
H           5.6437694    -2.8094853     1.3532851
O           0.9023397    -2.2089064     3.0694845
O           1.0803202    -3.6621915     0.9599597
27
202_C10H13NO2S_6-11-12-19 (-45,) energy =    -992.2068851
C           0.3959976    -1.3534561    -0.6167718
H           0.5533181    -2.3631768    -0.9804684
C          -0.0797338    -0.3473650    -1.4587907
H          -0.2806427    -0.5702616    -2.5029025
C          -0.3076346     0.9369460    -0.9594882
H          -0.6821867     1.7156687    -1.6181857
C           0.6428159    -1.0563691     0.7257395
C          -0.0676989     1.2203826     0.3873432
H          -0.2615357     2.2152260     0.7784388
C           0.4091978     0.2231251     1.2379798
H           0.5716889     0.4189122     2.2927479
S           1.2765329    -2.3386451     1.8245690
N           2.9539509    -2.2439954     1.7877571
C           3.6657039    -1.4856237     2.8567766
H           3.0286556    -0.7169500     3.3018551
C           4.8999364    -0.9016020     2.1453280
H           5.7763002    -0.8719568     2.7995105
H           4.6950993     0.1242878     1.8165942
H           3.9423646    -2.1836478     3.6536616
C           3.6471841    -2.0963938     0.4905036
H           3.2455032    -1.2561265    -0.0954210
H           3.5394973    -3.0119458    -0.0977733
C           5.0889784    -1.8119796     0.9203679
H           5.6745612    -1.3472329     0.1213765
H           5.5833423    -2.7467707     1.2080348
O           0.8792971    -2.0049232     3.1958922
O           0.9104191    -3.6127327     1.2007346
27
202_C10H13NO2S_6-11-12-19 (-30,) energy =    -992.2040532
C           0.3040819    -1.4761276    -0.6374223
H           0.3993776    -2.5195192    -0.9180133
C          -0.1897400    -0.5254307    -1.5317332
H          -0.4731945    -0.8276807    -2.5359424
C          -0.3289708     0.8063525    -1.1347392
H          -0.7172169     1.5417379    -1.8340572
C           0.6567304    -1.0745045     0.6522848
C           0.0184689     1.1944940     0.1618678
H          -0.1048007     2.2278381     0.4736193
C           0.5131174     0.2531501     1.0643914
H           0.7620780     0.5323488     2.0831548
S           1.2909828    -2.2910445     1.8220935
N           2.9727678    -2.2055062     1.7347517
C           3.7376654    -1.7198957     2.9179970
H           3.1325202    -1.0557219     3.5393841
C           4.9676352    -1.0252008     2.3070936
H           5.8607657    -1.1507766     2.9263421
H           4.7819591     0.0508296     2.2051383
H           4.0203034    -2.5820360     3.5322684
C           3.6422110    -1.8171302     0.4758847
H           3.2558540    -0.8666893     0.0799759
H           3.5001972    -2.5903196    -0.2855474
C           5.1014040    -1.6647449     0.9152823
H           5.6815106    -1.0584114     0.2128552
H           5.5741600    -2.6506767     0.9887860
O           0.9196801    -1.8738096     3.1798610
O           0.8798740    -3.5969006     1.2985008
27
202_C10H13NO2S_6-11-12-19 (-15,) energy =    -992.2016326
C           0.2495533    -1.5431393    -0.6117698
H           0.3319925    -2.6045664    -0.8198402
C          -0.2580987    -0.6537473    -1.5596741
H          -0.5659311    -1.0230696    -2.5337897
C          -0.3810352     0.7035433    -1.2535136
H          -0.7803539     1.3911299    -1.9940011
C           0.6340821    -1.0532262     0.6374619
C          -0.0039142     1.1792670     0.0050542
H          -0.1147380     2.2326455     0.2463647
C           0.5052073     0.2998509     0.9606115
H           0.7796376     0.6458918     1.9519047
S           1.2664210    -2.1939798     1.8786533
N           2.9493788    -2.1453851     1.7123271
C           3.7714091    -1.9368995     2.9358473
H           3.2197123    -1.3681803     3.6883168
C           5.0212143    -1.2008901     2.4210350
H           5.9229796    -1.4870514     2.9704055
H           4.8931787    -0.1174909     2.5326051
H           4.0223144    -2.9129721     3.3668957
C           3.6025382    -1.5607404     0.5228972
H           3.2615372    -0.5347183     0.3222353
H           3.4016605    -2.1671500    -0.3656818
C           5.0793548    -1.5684589     0.9296689
H           5.6729945    -0.8692427     0.3326125
H           5.4971561    -2.5729583     0.7976698
O           0.9410200    -1.6657188     3.2116488
O           0.7955805    -3.5269007     1.4883445
27
202_C10H13NO2S_6-11-12-19 (0,) energy =    -992.2003565
C           0.2537560    -1.5684672    -0.5663305
H           0.3587984    -2.6380281    -0.7150054
C          -0.2738545    -0.7452408    -1.5614656
H          -0.5733091    -1.1748888    -2.5131570
C          -0.4290446     0.6238135    -1.3299280
H          -0.8446971     1.2597977    -2.1066737
C           0.6286973    -0.9994976     0.6523648
C          -0.0649537     1.1770162    -0.0998096
H          -0.2021826     2.2389844     0.0830108
C           0.4657185     0.3646504     0.9026790
H           0.7325507     0.7688428     1.8736241
S           1.2732677    -2.0580107     1.9553047
N           2.9485845    -2.0699139     1.6938594
C           3.8176269    -2.1101026     2.9009741
H           3.3292345    -1.6263863     3.7514355
C           5.0985983    -1.3787452     2.4586061
H           5.9966869    -1.8114762     2.9091115
H           5.0509940    -0.3247718     2.7569864
H           4.0129220    -3.1553474     3.1667060
C           3.5918798    -1.3233065     0.5931200
H           3.3140355    -0.2588007     0.5860652
H           3.3217729    -1.7517855    -0.3761507
C           5.0781570    -1.4888309     0.9256867
H           5.6963416    -0.7353863     0.4276827
H           5.4215966    -2.4797372     0.6075182
O           1.0110669    -1.4079916     3.2499070
O           0.7522057    -3.4080527     1.7151482
27
202_C10H13NO2S_6-11-12-19 (15,) energy =    -992.2010144
C           0.3490414     0.5409007     0.0907750
H           1.0618737     0.7658153    -0.6958949
C          -0.4692244     1.5343797     0.6287541
H          -0.3857944     2.5559137     0.2687135
C          -1.4016209     1.2134156     1.6187016
H          -2.0390424     1.9897766     2.0328474
C           0.2225608    -0.7694860     0.5584352
C          -1.5257986    -0.1028160     2.0698309
H          -2.2609508    -0.3521323     2.8297456
C          -0.7137297    -1.1052836     1.5381911
H          -0.8091833    -2.1376733     1.8571053
S           1.2574393    -2.0570616    -0.1593754
N           2.6848922    -2.0635115     0.7453298
C           3.9578368    -2.0454897    -0.0145004
H           4.0799781    -2.9781940    -0.5714609
C           4.9973508    -1.8676442     1.0958470
H           5.9423682    -1.4698447     0.7136579
H           5.2022055    -2.8304971     1.5779616
H           3.9861028    -1.2162705    -0.7330174
C           2.8290604    -1.3958132     2.0627695
H           2.6340299    -2.1181013     2.8655679
H           2.1279136    -0.5655804     2.1838214
C           4.2925552    -0.9174389     2.0753778
H           4.7205189    -0.9333355     3.0821576
H           4.3510072     0.1122392     1.7027213
O           0.5490780    -3.3214512     0.0673522
O           1.6236138    -1.6594909    -1.5263993
27
202_C10H13NO2S_6-11-12-19 (30,) energy =    -992.2036623
C           0.4596189     0.4482027     0.0273848
H           1.1933339     0.5888415    -0.7597467
C          -0.3029199     1.5171464     0.4976162
H          -0.1501160     2.5108849     0.0861412
C          -1.2690947     1.3072889     1.4849917
H          -1.8635365     2.1418065     1.8466400
C           0.2452769    -0.8269162     0.5582162
C          -1.4818477     0.0266625     2.0001932
H          -2.2428029    -0.1365775     2.7580954
C          -0.7254738    -1.0509397     1.5368231
H          -0.8894048    -2.0571878     1.9070731
S           1.2249572    -2.2082700    -0.0647312
N           2.6795706    -2.2104175     0.7904101
C           3.9197976    -1.8897048     0.0364343
H           4.1889125    -2.7236789    -0.6157181
C           4.9379756    -1.6405069     1.1538758
H           5.7823125    -1.0353669     0.8099905
H           5.3320386    -2.5932071     1.5265369
H           3.7921642    -0.9997566    -0.5926193
C           2.7632426    -1.7135042     2.1882810
H           2.7629472    -2.5672172     2.8770684
H           1.9115406    -1.0778130     2.4458081
C           4.0968049    -0.9510748     2.2377249
H           4.5532076    -0.9829873     3.2316045
H           3.9363994     0.1015429     1.9744560
O           0.4807124    -3.4157730     0.3050825
O           1.5759569    -1.9368596    -1.4639052
27
202_C10H13NO2S_6-11-12-19 (45,) energy =    -992.2068918
C           0.4126450     0.2867486    -0.0412430
H           1.0578045     0.3444656    -0.9117363
C          -0.3325114     1.3898404     0.3750765
H          -0.2515436     2.3295808    -0.1639588
C          -1.1903704     1.2820731     1.4725965
H          -1.7720204     2.1426388     1.7914690
C           0.2910089    -0.9204471     0.6538262
C          -1.3132604     0.0682848     2.1524944
H          -1.9925766    -0.0183030     2.9958256
C          -0.5731056    -1.0425823     1.7448983
H          -0.6746956    -2.0010958     2.2423766
S           1.2678107    -2.3397265     0.1191192
N           2.7710044    -2.2300517     0.8658785
C           3.8772416    -1.5866417     0.1159184
H           4.1534242    -2.2047249    -0.7392333
C           4.9656886    -1.4804740     1.1858574
H           5.7330083    -0.7460447     0.9228781
H           5.4537582    -2.4524265     1.3201770
H           3.6006253    -0.5888182    -0.2561906
C           2.8552323    -1.8935923     2.3127516
H           2.8748004    -2.8224809     2.8925022
H           1.9923510    -1.3078605     2.6475255
C           4.1687734    -1.0970336     2.4433868
H           4.6947509    -1.3240435     3.3752854
H           3.9567129    -0.0214358     2.4354302
O           0.5989346    -3.5153243     0.6819359
O           1.5225364    -2.2053323    -1.3182420
27
202_C10H13NO2S_6-11-12-19 (60,) energy =    -992.2094729
C           0.4015960     0.1966983    -0.1720596
H           0.9945794     0.1914372    -1.0805236
C          -0.3232566     1.3264178     0.2073500
H          -0.2780464     2.2249244    -0.4016627
C          -1.1153035     1.2980605     1.3579788
H          -1.6812209     2.1791863     1.6476902
C           0.3263677    -0.9578542     0.6136251
C          -1.1938232     0.1360048     2.1285695
H          -1.8240323     0.1095271     3.0130926
C          -0.4733873    -1.0008631     1.7591163
H          -0.5468448    -1.9221563     2.3269062
S           1.2984674    -2.4023966     0.1488307
N           2.8104667    -2.2172483     0.8409616
C           3.8159873    -1.3687769     0.1671359
H           4.0746756    -1.7995419    -0.8009179
C           4.9595133    -1.3786963     1.1843532
H           5.6640423    -0.5566750     1.0259590
H           5.5114998    -2.3222846     1.1101222
H           3.4495413    -0.3419768     0.0072888
C           2.9282012    -2.1069275     2.3180460
H           2.9892934    -3.1123910     2.7448605
H           2.0592864    -1.6056540     2.7608518
C           4.2202502    -1.2883487     2.5313679
H           4.8107886    -1.6660800     3.3710102
H           3.9685979    -0.2437215     2.7476342
O           0.6774937    -3.5506379     0.8130928
O           1.5078914    -2.3512452    -1.3002308
27
202_C10H13NO2S_6-11-12-19 (75,) energy =    -992.2101664
C           0.2557515     0.2989432    -0.5808590
H           0.8455362     0.2266164    -1.4884628
C          -0.4274780     1.4716995    -0.2582949
H          -0.3524956     2.3357458    -0.9126002
C          -1.2154831     1.5309669     0.8937810
H          -1.7486538     2.4454975     1.1386343
C           0.1428811    -0.8100284     0.2633589
C          -1.3317356     0.4136242     1.7236502
H          -1.9593289     0.4551529     2.6094977
C          -0.6527185    -0.7649500     1.4119488
H          -0.7556067    -1.6520371     2.0277061
S           1.0742810    -2.3056526    -0.1104592
N           2.5749494    -2.1114020     0.5824036
C           3.5752362    -1.2086179    -0.0134467
H           3.8059056    -1.5280181    -1.0312446
C           4.7447248    -1.3540523     0.9657809
H           5.4467057    -0.5171865     0.9027256
H           5.2929401    -2.2778508     0.7497836
H           3.2192204    -0.1659168    -0.0438220
C           2.7490247    -2.2437349     2.0484542
H           2.8359942    -3.3033506     2.3059555
H           1.8942590    -1.8334842     2.5994823
C           4.0421334    -1.4498466     2.3327160
H           4.6584598    -1.9301564     3.0981918
H           3.7910775    -0.4451469     2.6919827
O           0.4306416    -3.4075237     0.6086420
O           1.2891728    -2.3283189    -1.5592510
27
202_C10H13NO2S_6-11-12-19 (90,) energy =    -992.2095220
C           0.2096684     0.3708381    -0.5711094
H           0.7959418     0.2596232    -1.4770064
C          -0.4886228     1.5491392    -0.3048753
H          -0.4298989     2.3789714    -1.0036428
C          -1.2703713     1.6571040     0.8476716
H          -1.8157927     2.5752013     1.0482520
C           0.1186414    -0.6930535     0.3308155
C          -1.3640776     0.5830829     1.7359319
H          -1.9861335     0.6620163     2.6231704
C          -0.6690848    -0.5995118     1.4816063
H          -0.7519284    -1.4530325     2.1461289
S           1.0664857    -2.1950564     0.0316498
N           2.5503353    -1.9474461     0.7254846
C           3.5602631    -1.0545968     0.1354097
H           3.7498941    -1.3331105    -0.9035424
C           4.7638067    -1.2784777     1.0606460
H           5.4617546    -0.4360796     1.0443408
H           5.3072218    -2.1775448     0.7484562
H           3.2317546    -0.0034507     0.1614086
C           2.8403153    -2.3079291     2.1294628
H           3.0041942    -3.3879297     2.2082573
H           2.0105182    -2.0463305     2.7948881
C           4.1126783    -1.4968934     2.4383025
H           4.7674106    -2.0130581     3.1466205
H           3.8404673    -0.5301680     2.8782702
O           0.4348086    -3.2756428     0.7933036
O           1.2805398    -2.2726002    -1.4160868
27
202_C10H13NO2S_6-11-12-19 (105,) energy =    -992.2090509
C           0.0453081     0.4583343    -0.4596362
H           0.6869893     0.3970314    -1.3322541
C          -0.7695495     1.5693150    -0.2419954
H          -0.7520355     2.3960602    -0.9466340
C          -1.6132348     1.6139977     0.8706101
H          -2.2488938     2.4799629     1.0338886
C           0.0072336    -0.6006561     0.4503359
C          -1.6510001     0.5435152     1.7668557
H          -2.3183422     0.5727099     2.6236756
C          -0.8397430    -0.5726432     1.5602443
H          -0.8721513    -1.4230285     2.2329227
S           1.0865204    -2.0189520     0.2017901
N           2.5085938    -1.6109599     0.9637230
C           3.6750201    -1.0853224     0.2232471
H           3.6589416    -1.4287197    -0.8128071
C           4.8657651    -1.6308618     1.0264987
H           5.7509953    -0.9932805     0.9416901
H           5.1317291    -2.6302457     0.6625788
H           3.6621747     0.0137362     0.2253622
C           2.8751558    -2.2100219     2.2651996
H           2.8178306    -3.3033696     2.2212800
H           2.2021239    -1.8674083     3.0580423
C           4.3177816    -1.7198800     2.4609052
H           4.8940823    -2.3927119     3.1031281
H           4.3171687    -0.7271502     2.9266080
O           0.5071364    -3.1397616     0.9501579
O           1.3539948    -2.1023067    -1.2388143
27
202_C10H13NO2S_6-11-12-19 (120,) energy =    -992.2089070
C           0.0145592     0.4051009    -0.5354120
H           0.6116056     0.2700970    -1.4309648
C          -0.7948873     1.5301522    -0.3706910
H          -0.8178889     2.2945170    -1.1423876
C          -1.5804558     1.6670222     0.7754180
H          -2.2121046     2.5425938     0.8979210
C           0.0293704    -0.5722363     0.4611739
C          -1.5656650     0.6758477     1.7604393
H          -2.1881438     0.7766733     2.6451150
C          -0.7591023    -0.4512003     1.6078269
H          -0.7512110    -1.2400827     2.3524444
S           1.0915311    -2.0122104     0.2761013
N           2.4981183    -1.5870279     1.0705268
C           3.6103424    -0.9296031     0.3459688
H           3.5733433    -1.1695171    -0.7192632
C           4.8655287    -1.4846820     1.0400356
H           5.6968591    -0.7734478     1.0247381
H           5.1954499    -2.3997433     0.5343632
H           3.5355303     0.1601862     0.4600633
C           2.9720445    -2.3888005     2.2227020
H           3.0100815    -3.4570347     1.9780147
H           2.3060626    -2.2630842     3.0806286
C           4.3756271    -1.8171861     2.4591586
H           5.0225303    -2.5264266     2.9844652
H           4.3128218    -0.9039440     3.0628179
O           0.4992547    -3.1076292     1.0514441
O           1.3692906    -2.1490362    -1.1597586
27
202_C10H13NO2S_6-11-12-19 (135,) energy =    -992.2089479
C          -0.0095815     0.3411811    -0.5959304
H           0.5452984     0.1296017    -1.5035846
C          -0.8148853     1.4765507    -0.4861828
H          -0.8791254     2.1731083    -1.3173657
C          -1.5419140     1.7095541     0.6822641
H          -2.1703230     2.5923649     0.7621547
C           0.0597058    -0.5459674     0.4786177
C          -1.4725601     0.8060456     1.7468896
H          -2.0489585     0.9829612     2.6505718
C          -0.6701575    -0.3292700     1.6500521
H          -0.6181021    -1.0494751     2.4597920
S           1.0980350    -2.0085541     0.3562580
N           2.4796587    -1.5625338     1.1974869
C           3.5343766    -0.7819628     0.5015231
H           3.4650949    -0.9103961    -0.5820469
C           4.8482569    -1.3428365     1.0753503
H           5.6306435    -0.5808026     1.1408933
H           5.2190994    -2.1503617     0.4334443
H           3.4110918     0.2831067     0.7345111
C           3.0627923    -2.5304256     2.1601092
H           3.1651415    -3.5312435     1.7211262
H           2.4281997    -2.6126544     3.0452214
C           4.4351331    -1.9109640     2.4429659
H           5.1433445    -2.6463533     2.8368430
H           4.3381982    -1.1036859     3.1786186
O           0.4801674    -3.0805174     1.1444766
O           1.4022350    -2.1979639    -1.0698090
27
202_C10H13NO2S_6-11-12-19 (150,) energy =    -992.2089274
C          -0.1365636     0.2062740    -0.6903915
H           0.3247651    -0.1165001    -1.6173165
C          -0.9262348     1.3566522    -0.6309060
H          -1.0796414     1.9516944    -1.5267297
C          -1.5202856     1.7363072     0.5733442
H          -2.1350586     2.6313005     0.6148782