29
048_C14H13NO_5-0-24-25 (-165,) energy =    -671.2974878
N           1.1440550    -0.6461924    -0.2627512
C           0.8329105     0.7853674    -0.2544053
H           1.7541933     1.3607949    -0.2428121
H           0.2336604     1.0543941     0.6224248
H           0.2751299     1.0608042    -1.1574389
C           2.4622033    -1.0709561    -0.4580001
C           5.7982330     1.2523037     0.9586842
H           6.6597408     1.8095169     1.3167390
C           4.6546443     1.1473732     1.7526821
H           4.6272026     1.6120911     2.7345528
C           3.5447175     0.4403219     1.2898907
H           2.6597066     0.3515393     1.9140863
C           3.5742701    -0.1788324     0.0320190
C           4.7371928    -0.0952117    -0.7454566
H           4.7669301    -0.6119222    -1.6995371
C           5.8367199     0.6301851    -0.2918974
H           6.7283937     0.7018575    -0.9086876
O           2.7503463    -2.1477207    -0.9650968
C          -2.1969015    -3.2849694    -0.2207811
H          -3.0533218    -3.9526681    -0.1961580
C          -0.8994699    -3.7850133    -0.0932396
H          -0.7377765    -4.8520433     0.0360243
C           0.2073412    -2.9423743    -0.1284492
H           1.1987474    -3.3601253    -0.0422022
C           0.0400374    -1.5530471    -0.2965551
C          -1.2699842    -1.0542239    -0.4118623
H          -1.4550827     0.0054746    -0.5306102
C          -2.3697964    -1.9132910    -0.3780928
H          -3.3674698    -1.4929117    -0.4745048
29
048_C14H13NO_5-0-24-25 (-150,) energy =    -671.2979401
N           1.1193053    -0.6162170    -0.1580488
C           0.7918079     0.8097564    -0.0881117
H           1.6954633     1.3887213     0.0818649
H           0.0870004     0.9979422     0.7280862
H           0.3415318     1.1586995    -1.0262274
C           2.4243143    -1.0339146    -0.4379284
C           5.8380645     1.2270277     0.8902761
H           6.7189054     1.7695884     1.2228883
C           4.7458033     1.0755330     1.7465902
H           4.7780917     1.4890225     2.7509753
C           3.6108319     0.3872429     1.3171597
H           2.7665606     0.2603638     1.9895001
C           3.5639340    -0.1659527     0.0294371
C           4.6767889    -0.0373730    -0.8122734
H           4.6490117    -0.5047497    -1.7915656
C           5.8009107     0.6693319    -0.3903071
H           6.6531125     0.7762477    -1.0558881
O           2.6744213    -2.0916707    -1.0011151
C          -2.1721493    -3.2997119    -0.3059198
H          -3.0166088    -3.9826587    -0.3273657
C          -0.8985098    -3.7559918     0.0437733
H          -0.7462782    -4.8008008     0.3014207
C           0.1894826    -2.8901747     0.0747205
H           1.1670619    -3.2668258     0.3421626
C           0.0260878    -1.5319371    -0.2545643
C          -1.2558508    -1.0759513    -0.5977356
H          -1.4247170    -0.0372310    -0.8547912
C          -2.3408114    -1.9551465    -0.6232911
H          -3.3217638    -1.5746238    -0.8956564
29
048_C14H13NO_5-0-24-25 (-135,) energy =    -671.2978807
N           1.1014510    -0.6224826    -0.0337760
C           0.7637675     0.7980591     0.0931550
H           1.6455482     1.3675585     0.3758199
H          -0.0057189     0.9263413     0.8601392
H           0.3870463     1.2114456    -0.8516892
C           2.3887454    -1.0348915    -0.3887508
C           5.8663553     1.2106558     0.7923816
H           6.7625161     1.7510364     1.0852521
C           4.8346100     1.0172049     1.7128814
H           4.9298131     1.3956289     2.7270786
C           3.6797322     0.3316181     1.3350660
H           2.8834784     0.1705931     2.0569659
C           3.5522459    -0.1764884     0.0343789
C           4.6056397    -0.0066616    -0.8736007
H           4.5177611    -0.4400477    -1.8649613
C           5.7492870     0.6971455    -0.5017352
H           6.5547754     0.8359510    -1.2177255
O           2.6023958    -2.0845292    -0.9808705
C          -2.1556012    -3.3165443    -0.4069227
H          -2.9916137    -4.0056339    -0.4868368
C          -0.9474594    -3.7332321     0.1592659
H          -0.8393829    -4.7508605     0.5249412
C           0.1251612    -2.8545950     0.2700504
H           1.0574054    -3.1879581     0.7094001
C           0.0102730    -1.5351779    -0.1959102
C          -1.1998141    -1.1203244    -0.7658238
H          -1.3142788    -0.1090436    -1.1399462
C          -2.2746500    -2.0069803    -0.8654199
H          -3.2054926    -1.6646320    -1.3098145
29
048_C14H13NO_5-0-24-25 (-120,) energy =    -671.2974340
N           1.0884051    -0.6344688    -0.0227227
C           0.7430074     0.7187369     0.4145021
H           1.6060660     1.3748726     0.3163310
H           0.4051952     0.7257831     1.4586846
H          -0.0629118     1.1247823    -0.2043704
C           2.3623083    -1.0396296    -0.3974831
C           5.8857362     1.1775380     0.7069709
H           6.7934343     1.7110488     0.9761276
C           4.8832968     0.9786386     1.6575306
H           5.0123618     1.3462057     2.6720269
C           3.7132612     0.3023005     1.3092486
H           2.9426691     0.1402132     2.0579121
C           3.5405984    -0.1923770     0.0090772
C           4.5663355    -0.0167776    -0.9300176
H           4.4444153    -0.4410921    -1.9215841
C           5.7241502     0.6782736    -0.5881583
H           6.5068025     0.8211856    -1.3283179
O           2.5510387    -2.0752337    -1.0252045
C          -2.1468740    -3.3287295    -0.5092065
H          -2.9802357    -4.0165742    -0.6223511
C          -1.0613846    -3.6663390     0.3024896
H          -1.0460800    -4.6196691     0.8237357
C           0.0049508    -2.7829677     0.4556268
H           0.8500314    -3.0423358     1.0847476
C           0.0009392    -1.5538546    -0.2136305
C          -1.0801511    -1.2214658    -1.0357579
H          -1.0801690    -0.2808229    -1.5787257
C          -2.1518186    -2.1042159    -1.1771712
H          -2.9861786    -1.8350962    -1.8193156
29
048_C14H13NO_5-0-24-25 (-105,) energy =    -671.2973612
N           1.0910065    -0.6486606     0.0559378
C           0.7272963     0.6726598     0.5687352
H           1.5663682     1.3597732     0.4683116
H           0.4309272     0.6235593     1.6244298
H          -0.1172978     1.0751267    -0.0008136
C           2.3452931    -1.0062549    -0.4144833
C           5.8860688     1.2003289     0.6537535
H           6.7973149     1.7332098     0.9120173
C           4.9249589     0.9435892     1.6327596
H           5.0901966     1.2655517     2.6574610
C           3.7503065     0.2675949     1.2996436
H           3.0119814     0.0592476     2.0690313
C           3.5319356    -0.1681400    -0.0145691
C           4.5166977     0.0657268    -0.9843011
H           4.3596904    -0.3135949    -1.9890804
C           5.6790553     0.7597970    -0.6561895
H           6.4298166     0.9477501    -1.4189968
O           2.5083724    -1.9972225    -1.1169807
C          -2.1337873    -3.3193598    -0.5780929
H          -2.9650283    -4.0018061    -0.7326521
C          -1.1707042    -3.5970302     0.3939808
H          -1.2489034    -4.4967122     0.9982845
C          -0.1060677    -2.7195847     0.5970268
H           0.6478908    -2.9268157     1.3504017
C           0.0052610    -1.5631406    -0.1794243
C          -0.9529909    -1.2898060    -1.1593918
H          -0.8522573    -0.4004793    -1.7755058
C          -2.0224098    -2.1642758    -1.3540112
H          -2.7625515    -1.9472045    -2.1194548
29
048_C14H13NO_5-0-24-25 (-90,) energy =    -671.2972120
N           1.1047496    -0.6795430     0.1124037
C           0.7317701     0.6054731     0.7055548
H           1.5566595     1.3126205     0.6262151
H           0.4593584     0.4938843     1.7628047
H          -0.1332928     1.0202196     0.1751912
C           2.3352301    -0.9759237    -0.4519625
C           5.8931352     1.2068594     0.6088078
H           6.8077892     1.7359688     0.8627463
C           4.9723088     0.8842247     1.6068545
H           5.1726410     1.1505562     2.6412316
C           3.7932072     0.2129118     1.2801625
H           3.0876875    -0.0491581     2.0636284
C           3.5297437    -0.1515948    -0.0474245
C           4.4750025     0.1479212    -1.0382185
H           4.2835256    -0.1769475    -2.0559704
C           5.6418071     0.8367351    -0.7150894
H           6.3615410     1.0756950    -1.4933811
O           2.4726772    -1.9073310    -1.2369416
C          -2.1418583    -3.3004847    -0.6035957
H          -2.9804940    -3.9686383    -0.7795472
C          -1.3104288    -3.4974729     0.4999820
H          -1.4987347    -4.3190864     1.1857257
C          -0.2336052    -2.6391333     0.7272079
H           0.4228487    -2.7840068     1.5803547
C           0.0157446    -1.5844600    -0.1530588
C          -0.8136359    -1.3889264    -1.2608290
H          -0.6026480    -0.5746056    -1.9483389
C          -1.8909663    -2.2457905    -1.4841957
H          -2.5301458    -2.0940764    -2.3497802
29
048_C14H13NO_5-0-24-25 (-75,) energy =    -671.2973192
N           1.1602626    -0.6895893     0.1450375
C           0.7828766     0.5368636     0.8500288
H           1.5918806     1.2648485     0.8015688
H           0.5466823     0.3396783     1.9032843
H          -0.1062969     0.9714641     0.3782197
C           2.3769986    -0.9136351    -0.4779872
C           5.9178251     1.2753530     0.6282054
H           6.8283541     1.8073239     0.8908653
C           5.0456314     0.8444117     1.6290246
H           5.2805023     1.0294642     2.6737979
C           3.8717492     0.1693505     1.2912340
H           3.2040364    -0.1768466     2.0752090
C           3.5652090    -0.0905574    -0.0514847
C           4.4625744     0.3172379    -1.0480335
H           4.2394438     0.0730094    -2.0817902
C           5.6234599     1.0098571    -0.7118073
H           6.3054322     1.3333793    -1.4935261
O           2.5117878    -1.7803395    -1.3345335
C          -2.0918711    -3.2929834    -0.6046172
H          -2.9347277    -3.9537369    -0.7883361
C          -1.4111459    -3.3500291     0.6122110
H          -1.7198348    -4.0555950     1.3788110
C          -0.3259853    -2.5035716     0.8462110
H           0.2174457    -2.5460734     1.7860882
C           0.0777343    -1.5969056    -0.1361932
C          -0.6047773    -1.5373825    -1.3545220
H          -0.2757505    -0.8366497    -2.1154548
C          -1.6848735    -2.3878382    -1.5877250
H          -2.2078094    -2.3453694    -2.5393051
29
048_C14H13NO_5-0-24-25 (-60,) energy =    -671.2976892
N           1.1401118    -0.7149830     0.1212891
C           0.8151817     0.4364774     0.9675647
H           1.5851290     1.2013308     0.8722818
H           0.7254406     0.1612537     2.0258754
H          -0.1408645     0.8610552     0.6429971
C           2.3388862    -0.8845927    -0.5533674
C           5.9002758     1.2530366     0.5873392
H           6.8157484     1.7730264     0.8566323
C           5.0786092     0.7230393     1.5833605
H           5.3576093     0.8184224     2.6293083
C           3.8979195     0.0638265     1.2385956
H           3.2703737    -0.3588229     2.0181195
C           3.5342464    -0.0818075    -0.1071783
C           4.3820395     0.4246825    -1.1019812
H           4.1162293     0.2692239    -2.1427700
C           5.5491716     1.1022683    -0.7567736
H           6.1917547     1.5033879    -1.5358748
O           2.4568277    -1.6812819    -1.4781327
C          -2.1459125    -3.2830958    -0.6127918
H          -2.9975604    -3.9334403    -0.7928103
C          -1.6086257    -3.1707169     0.6699796
H          -2.0372856    -3.7345770     1.4941172
C          -0.5107971    -2.3399462     0.8981731
H          -0.0795140    -2.2625201     1.8924667
C           0.0498511    -1.6109503    -0.1549309
C          -0.4914532    -1.7188986    -1.4403147
H          -0.0451720    -1.1610824    -2.2552361
C          -1.5815337    -2.5587421    -1.6652177
H          -1.9930071    -2.6443674    -2.6673280
29
048_C14H13NO_5-0-24-25 (-45,) energy =    -671.2979966
N           1.1364123    -0.7180500     0.0811884
C           0.8859281     0.3514760     1.0540391
H           1.5810978     1.1740701     0.8891432
H           0.9903988     0.0166018     2.0934300
H          -0.1338046     0.7210452     0.9132144
C           2.3253633    -0.8331091    -0.6263307
C           5.8933491     1.2547731     0.5859961
H           6.8110014     1.7628583     0.8701253
C           5.1297763     0.5973895     1.5518522
H           5.4567437     0.5817716     2.5880643
C           3.9459253    -0.0461425     1.1890324
H           3.3638062    -0.5666972     1.9440662
C           3.5217324    -0.0494738    -0.1467202
C           4.3119368     0.5846194    -1.1155630
H           4.0010981     0.5408530    -2.1546260
C           5.4811765     1.2474182    -0.7490694
H           6.0781511     1.7485155    -1.5062097
O           2.4424938    -1.5561475    -1.6097015
C          -2.1742822    -3.2769772    -0.6116918
H          -3.0297059    -3.9252446    -0.7803563
C          -1.7765720    -2.9595039     0.6869338
H          -2.3176419    -3.3612944     1.5395157
C          -0.6750933    -2.1313273     0.9013637
H          -0.3636997    -1.9030881     1.9162652
C           0.0391999    -1.6042532    -0.1831080
C          -0.3656822    -1.9168960    -1.4882805
H           0.1854639    -1.5192269    -2.3290031
C          -1.4624560    -2.7535149    -1.6923912
H          -1.7647286    -2.9909508    -2.7089422
29
048_C14H13NO_5-0-24-25 (-30,) energy =    -671.2979354
N           1.1364942    -0.7150059     0.0499852
C           0.9324386     0.3059966     1.0864523
H           1.6135871     1.1394016     0.9224388
H           1.0960136    -0.0760970     2.1012299
H          -0.0945792     0.6750938     1.0175344
C           2.3014015    -0.7469087    -0.7096619
C           5.8979862     1.2274398     0.6027779
H           6.8229150     1.7076829     0.9106378
C           5.1709501     0.4612985     1.5154325
H           5.5335624     0.3332047     2.5317827
C           3.9778218    -0.1469269     1.1241322
H           3.4233273    -0.7522821     1.8355497
C           3.5081861    -0.0056013    -0.1888947
C           4.2614342     0.7378385    -1.1080004
H           3.9152989     0.8078055    -2.1344302
C           5.4400955     1.3650968    -0.7100762
H           6.0083620     1.9518393    -1.4266752
O           2.4034154    -1.3659974    -1.7630290
C          -2.1878516    -3.2894706    -0.5779144
H          -3.0432237    -3.9426412    -0.7260930
C          -1.8874227    -2.7942992     0.6903824
H          -2.5039573    -3.0617308     1.5445695
C          -0.7885872    -1.9579448     0.8790871
H          -0.5656742    -1.6012225     1.8788631
C           0.0327992    -1.5940916    -0.2018351
C          -0.2740439    -2.0920622    -1.4794634
H           0.3491609    -1.8281489    -2.3196901
C          -1.3735580    -2.9326324    -1.6526735
H          -1.5948543    -3.3052118    -2.6494727
29
048_C14H13NO_5-0-24-25 (-15,) energy =    -671.2975149
N           1.1379942    -0.7026193     0.0380738
C           0.9626141     0.2751198     1.1207160
H           1.6796215     1.0845029     1.0037142
H           1.0995440    -0.1661552     2.1150027
H          -0.0460648     0.6946358     1.0619717
C           2.2673447    -0.6386644    -0.7766977
C           5.9236218     1.1679587     0.6089435
H           6.8635026     1.6066578     0.9330889
C           5.2130057     0.3252472     1.4655252
H           5.6034556     0.0963744     2.4534389
C           4.0011937    -0.2299953     1.0538297
H           3.4576856    -0.8942716     1.7198381
C           3.4961621     0.0420947    -0.2252034
C           4.2315103     0.8633033    -1.0908423
H           3.8559718     1.0358521    -2.0945541
C           5.4295122     1.4367474    -0.6700366
H           5.9842943     2.0843791    -1.3434280
O           2.3311578    -1.1328095    -1.8967175
C          -2.1588445    -3.3355350    -0.5512994
H          -3.0034072    -4.0050478    -0.6875234
C          -1.9599303    -2.6819256     0.6630484
H          -2.6452328    -2.8408577     1.4916075
C          -0.8771956    -1.8216752     0.8370358
H          -0.7459649    -1.3503571     1.8034571
C           0.0381707    -1.5870574    -0.2072052
C          -0.1661285    -2.2521897    -1.4313118
H           0.5191925    -2.0887918    -2.2471101
C          -1.2524528    -3.1124629    -1.5870163
H          -1.3881960    -3.6087358    -2.5445608
29
048_C14H13NO_5-0-24-25 (0,) energy =    -671.2971862
N           1.1126004    -0.6586696     0.0581370
C           0.9683122     0.2537026     1.1981818
H           1.7528193     1.0048843     1.1668404
H           1.0256329    -0.2724403     2.1581898
H           0.0022845     0.7658558     1.1371977
C           2.1962796    -0.5016230    -0.8094958
C           5.9487490     1.0982114     0.5705060
H           6.9118456     1.4859857     0.8913924
C           5.2498252     0.2030965     1.3825252
H           5.6719399    -0.1170765     2.3312564
C           4.0088652    -0.2873828     0.9758236
H           3.4728592    -0.9918374     1.6057879
C           3.4619100     0.1035870    -0.2545375
C           4.1841898     0.9779915    -1.0779292
H           3.7734882     1.2434813    -2.0469352
C           5.4126547     1.4853755    -0.6603753
H           5.9578155     2.1746670    -1.2993729
O           2.1896519    -0.8639433    -1.9799996
C          -2.1224166    -3.3706036    -0.5415162
H          -2.9475103    -4.0632598    -0.6807870
C          -2.0500760    -2.5697302     0.5949201
H          -2.8176602    -2.6334071     1.3618690
C          -0.9927912    -1.6778040     0.7734195
H          -0.9731306    -1.0914284     1.6826281
C           0.0276469    -1.5577611    -0.1907365
C          -0.0515194    -2.3731070    -1.3382951
H           0.7045416    -2.2957509    -2.1026702
C          -1.1123553    -3.2620607    -1.4972623
H          -1.1449185    -3.8742318    -2.3949382
29
048_C14H13NO_5-0-24-25 (15,) energy =    -671.2973764
N           1.1017104    -0.6553143     0.1208962
C           0.9810528     0.1888105     1.3125610
H           1.8431516     0.8456503     1.3850607
H           0.9170036    -0.4154159     2.2243983
H           0.0841653     0.8155507     1.2441902
C           2.1375114    -0.4241242    -0.7898025
C           5.9617761     1.0756592     0.4994035
H           6.9416439     1.4401303     0.7958957
C           5.3030333     0.1258131     1.2823925
H           5.7728605    -0.2598718     2.1831076
C           4.0409371    -0.3353873     0.9076924
H           3.5349928    -1.0819863     1.5137571
C           3.4318500     0.1413164    -0.2619702
C           4.1131284     1.0712371    -1.0588464
H           3.6529332     1.4040180    -1.9838398
C           5.3635476     1.5481223    -0.6716534
H           5.8771377     2.2805423    -1.2884462
O           2.0583136    -0.6971877    -1.9810528
C          -2.1104455    -3.3647255    -0.5777724
H          -2.9279103    -4.0603558    -0.7443247
C          -2.1614593    -2.4441428     0.4644603
H          -3.0214196    -2.4131989     1.1284636
C          -1.1131837    -1.5476004     0.6776064
H          -1.1970483    -0.8557484     1.5053793
C           0.0205247    -1.5483299    -0.1560799
C           0.0660089    -2.4845412    -1.2090083
H           0.9127112    -2.5049160    -1.8772748
C          -0.9861359    -3.3743241    -1.4050990
H          -0.9204417    -4.0843175    -2.2254936
29
048_C14H13NO_5-0-24-25 (30,) energy =    -671.2978560
N           1.1233492    -0.7016808     0.2052173
C           1.0171997     0.0902954     1.4328157
H           1.9407022     0.6377697     1.5997726
H           0.8258738    -0.5595895     2.2929687
H           0.2023222     0.8214662     1.3588399
C           2.1083878    -0.4074220    -0.7432542
C           5.9683920     1.1003517     0.4222151
H           6.9557355     1.4694501     0.6864370
C           5.3697917     0.0964807     1.1858802
H           5.8939967    -0.3263589     2.0386476
C           4.0983545    -0.3712764     0.8528173
H           3.6393116    -1.1607009     1.4418633
C           3.4191055     0.1541811    -0.2557954
C           4.0400531     1.1387520    -1.0359346
H           3.5254455     1.5099697    -1.9165965
C           5.3003757     1.6208307    -0.6891775
H           5.7672212     2.3950818    -1.2918819
O           1.9662941    -0.6306396    -1.9385251
C          -2.1165369    -3.3236483    -0.6333692
H          -2.9402843    -4.0019847    -0.8364401
C          -2.2531156    -2.3039399     0.3038157
H          -3.1876953    -2.1762931     0.8437732
C          -1.1958759    -1.4295671     0.5645634
H          -1.3422830    -0.6465656     1.2983061
C           0.0266664    -1.5606015    -0.1134181
C           0.1606499    -2.5964946    -1.0571230
H           1.0878522    -2.7172474    -1.5989422
C          -0.9004767    -3.4602503    -1.3075152
H          -0.7701309    -4.2523082    -2.0402519
29
048_C14H13NO_5-0-24-25 (45,) energy =    -671.2979474
N           1.2872352    -0.7426113    -0.3667263
C           1.3512355     0.2180357    -1.4715290
H           2.1879038     0.8966980    -1.3271089
H           0.4238236     0.7970796    -1.5120562
H           1.4909814    -0.2855042    -2.4371227
C           2.4356738    -1.1073836     0.3416735
C           5.6566142     1.6768911     0.9781092
H           6.4803378     2.3609510     1.1636670
C           4.3384429     2.1158481     1.1159076
H           4.1329811     3.1385363     1.4204353
C           3.2802853     1.2407808     0.8687358
H           2.2551112     1.5808308     0.9890649
C           3.5329956    -0.0860106     0.4919594
C           4.8584391    -0.5278888     0.3876126
H           5.0458433    -1.5674551     0.1376018
C           5.9142076     0.3529800     0.6133728
H           6.9387549     0.0044295     0.5157816
O           2.5572208    -2.1996533     0.8804512
C          -2.2264826    -3.1120373    -0.1304814
H          -3.1343461    -3.7047661    -0.0627282
C          -1.8057794    -2.6014370    -1.3556104
H          -2.3829557    -2.7935781    -2.2562254
C          -0.6375519    -1.8406099    -1.4443313
H          -0.3291774    -1.4625892    -2.4124632
C           0.1272356    -1.5782079    -0.3002235
C          -0.3056119    -2.0865665     0.9357118
H           0.2742948    -1.8909829     1.8288892
C          -1.4664632    -2.8488006     1.0126666
H          -1.7832176    -3.2345870     1.9779792
29
048_C14H13NO_5-0-24-25 (60,) energy =    -671.2974310
N           1.2548204    -0.7274311    -0.3524335
C           1.1695830     0.4336640    -1.2392739
H           2.1558631     0.8745602    -1.3732267
H           0.4891566     1.1947924    -0.8362992
H           0.7966904     0.1337570    -2.2230152
C           2.4005360    -1.1112641     0.3314674
C           5.7016284     1.5829550     0.9588085
H           6.5470449     2.2414518     1.1394538
C           4.3993154     2.0515540     1.1389423
H           4.2273163     3.0718188     1.4712579
C           3.3131054     1.2092840     0.8974161
H           2.3024826     1.5773467     1.0514224
C           3.5204139    -0.1143178     0.4850509
C           4.8321487    -0.5862300     0.3383040
H           4.9853800    -1.6245631     0.0617281
C           5.9154803     0.2616477     0.5574013
H           6.9279379    -0.1106337     0.4265057
O           2.5121417    -2.2258652     0.8287282
C          -2.1710919    -3.2170699    -0.1767788
H          -3.0560470    -3.8455495    -0.1291893
C          -1.5856806    -2.9206236    -1.4075468
H          -2.0079090    -3.3222979    -2.3247737
C          -0.4464710    -2.1167939    -1.4694573
H           0.0175750    -1.9122584    -2.4298471
C           0.1091083    -1.5923561    -0.2982705
C          -0.4785861    -1.8918951     0.9363057
H          -0.0390551    -1.4937463     1.8447283
C          -1.6087097    -2.7042810     0.9945209
H          -2.0542904    -2.9328963     1.9588667
29
048_C14H13NO_5-0-24-25 (75,) energy =    -671.2973721
N           1.2239140    -0.6776126    -0.2934649
C           1.0875003     0.5151318    -1.1300090
H           2.0607611     0.9780099    -1.2872567
H           0.4130951     1.2497635    -0.6714217
H           0.6748634     0.2416189    -2.1068635
C           2.4019014    -1.1077966     0.2980281
C           5.7329549     1.5488247     0.9266425
H           6.5867602     2.1972015     1.1045627
C           4.4401748     2.0091641     1.1812807
H           4.2845765     3.0124860     1.5687284
C           3.3429293     1.1800522     0.9437872
H           2.3401788     1.5402218     1.1564838
C           3.5300832    -0.1222772     0.4604092
C           4.8335830    -0.5873028     0.2379789
H           4.9722219    -1.6112912    -0.0941892
C           5.9271185     0.2481611     0.4539771
H           6.9325897    -0.1180741     0.2649377
O           2.5301653    -2.2540702     0.7125436
C          -2.1386980    -3.2509296    -0.2125885
H          -3.0076561    -3.9028637    -0.1912677
C          -1.4283661    -3.0691428    -1.4002865
H          -1.7382258    -3.5835251    -2.3059588
C          -0.3098475    -2.2356950    -1.4277397
H           0.2567278    -2.1090841    -2.3462044
C           0.0983507    -1.5734182    -0.2666739
C          -0.6140997    -1.7538817     0.9220485
H          -0.2856390    -1.2395853     1.8200865
C          -1.7256878    -2.5951965     0.9489758
H          -2.2718295    -2.7349897     1.8779116
29
048_C14H13NO_5-0-24-25 (90,) energy =    -671.2972223
N           1.2076109    -0.6496339    -0.2397657
C           1.0191940     0.5778178    -1.0142358
H           1.9768960     1.0682391    -1.1849669
H           0.3481376     1.2771335    -0.4992181
H           0.5747105     0.3365891    -1.9866175
C           2.4180579    -1.1128377     0.2505837
C           5.7564950     1.5315248     0.8940863
H           6.6131361     2.1760298     1.0724748
C           4.4721590     1.9683391     1.2222585
H           4.3264084     2.9488779     1.6675742
C           3.3710519     1.1444307     0.9846033
H           2.3757520     1.4846851     1.2563743
C           3.5459474    -0.1294041     0.4264350
C           4.8423260    -0.5723308     0.1297955
H           4.9727105    -1.5764982    -0.2609492
C           5.9390029     0.2585545     0.3472215
H           6.9383251    -0.0900521     0.1009073
O           2.5732830    -2.2856821     0.5713527
C          -2.1207216    -3.2663244    -0.2431104
H          -2.9816900    -3.9292219    -0.2458693
C          -1.2814759    -3.2046900    -1.3577862
H          -1.4844185    -3.8233807    -2.2277440
C          -0.1746469    -2.3562355    -1.3549370
H           0.4909380    -2.3123691    -2.2125507
C           0.0949784    -1.5643903    -0.2353405
C          -0.7440077    -1.6248047     0.8791943
H          -0.5202872    -1.0074317     1.7443518
C          -1.8487133    -2.4776755     0.8758554
H          -2.4962508    -2.5244273     1.7472133
29
048_C14H13NO_5-0-24-25 (105,) energy =    -671.2972802
N           1.1920573    -0.6521867    -0.2038228
C           0.9640751     0.6229939    -0.8858371
H           1.9087489     1.1423507    -1.0427609
H           0.2939660     1.2726926    -0.3088812
H           0.5007735     0.4393452    -1.8625360
C           2.4256866    -1.1376188     0.1979033
C           5.7706545     1.4879238     0.8827377
H           6.6295355     2.1270872     1.0693632
C           4.5002710     1.8826170     1.3050951
H           4.3683789     2.8240481     1.8316845
C           3.3956892     1.0663196     1.0573870
H           2.4116356     1.3716454     1.4019586
C           3.5540475    -0.1582263     0.3941577
C           4.8379891    -0.5615996     0.0023543
H           4.9578612    -1.5310479    -0.4707937
C           5.9370753     0.2631894     0.2306790
H           6.9261262    -0.0533005    -0.0894141
O           2.6048490    -2.3286121     0.4269009
C          -2.1381269    -3.2644058    -0.2686251
H          -2.9997403    -3.9262105    -0.2883352
C          -1.1666992    -3.3505499    -1.2688830
H          -1.2687670    -4.0819833    -2.0659827
C          -0.0602792    -2.5023658    -1.2465585
H           0.7056756    -2.5691665    -2.0131120
C           0.0791672    -1.5666179    -0.2177099
C          -0.8876108    -1.4836378     0.7862182
H          -0.7613638    -0.7604055     1.5870784
C          -1.9966813    -2.3311900     0.7591339
H          -2.7459867    -2.2640364     1.5432281
29
048_C14H13NO_5-0-24-25 (120,) energy =    -671.2976325
N           1.2016606    -0.6605753    -0.1926403
C           0.9310525     0.6770355    -0.7260583
H           1.8664762     1.1886604    -0.9499141
H           0.3545872     1.2927530    -0.0242504
H           0.3535084     0.5842763    -1.6522886
C           2.4590339    -1.1441732     0.1326958
C           5.7764879     1.5012830     0.8736314
H           6.6294036     2.1446066     1.0727800
C           4.5203028     1.8280973     1.3867435
H           4.3938220     2.7191764     1.9957965
C           3.4225809     1.0077166     1.1233372
H           2.4507000     1.2603653     1.5377510
C           3.5739423    -0.1539561     0.3538132
C           4.8455627    -0.4915874    -0.1297533
H           4.9634571    -1.4153998    -0.6872035
C           5.9368101     0.3390680     0.1144964
H           6.9153893     0.0750392    -0.2772848
O           2.6782777    -2.3428737     0.2690567
C          -2.1388957    -3.2616361    -0.2536973
H          -3.0032338    -3.9198391    -0.2729953
C          -1.0537094    -3.5046905    -1.0986702
H          -1.0705033    -4.3543975    -1.7758366
C           0.0568891    -2.6616645    -1.0812642
H           0.9058397    -2.8505442    -1.7282714
C           0.0882041    -1.5709471    -0.2065485