24
030_C11H9N3O_2-0-16-17 (-165,) energy =    -663.9331172
C           1.2236667    -1.6895228    -0.4360770
H           1.3522968    -2.7723605    -0.6094055
C           1.6171843    -1.3589217     0.9894139
H           1.1277763    -1.8975463     1.7944736
C           2.5156168    -0.4159572     1.3071029
H           2.7673220    -0.1862225     2.3371110
N           3.1672842     0.3554115     0.3506267
H           3.9889808     0.8720199     0.6223652
C           3.0086246     0.0097946    -0.9847749
H           3.6332198     0.5572994    -1.6837109
C           2.1378897    -0.9272688    -1.3898332
H           2.0496699    -1.1339427    -2.4519080
C          -2.9740829    -0.8504137    -1.7184608
H          -3.9837784    -0.6393581    -2.0520709
C          -2.4617525    -0.2623959    -0.5271705
C          -1.1197449    -0.5273079    -0.0677509
C          -0.2473262    -1.4107081    -0.7938051
C          -0.7909655    -1.9477002    -1.9365441
H          -0.1806547    -2.6237736    -2.5318196
C          -2.1250819    -1.6805830    -2.3957256
H          -2.4574877    -2.1613318    -3.3116566
N          -0.9264523     0.1518527     1.0545053
O          -2.1044627     0.8109188     1.2749392
N          -3.0512177     0.5661416     0.3173719
24
030_C11H9N3O_2-0-16-17 (-150,) energy =    -663.9349599
C           1.2429457    -1.6825334    -0.5184068
H           1.4199131    -2.7267145    -0.8294980
C           1.6342192    -1.5136723     0.9373290
H           1.1872282    -2.1818379     1.6671056
C           2.4791264    -0.5658041     1.3679371
H           2.7306359    -0.4498912     2.4169584
N           3.0766134     0.3486219     0.5105907
H           3.8349628     0.9180944     0.8495810
C           2.9187592     0.1729506    -0.8562500
H           3.5023860     0.8411920    -1.4815917
C           2.1008539    -0.7571451    -1.3737191
H           2.0105675    -0.8365376    -2.4526862
C          -3.0028346    -0.8965707    -1.6425157
H          -4.0263349    -0.6957008    -1.9383684
C          -2.3954839    -0.1709211    -0.5774940
C          -1.0346783    -0.4222546    -0.1719377
C          -0.2401906    -1.4314280    -0.8201050
C          -0.8684634    -2.0901806    -1.8492499
H          -0.3154324    -2.8583087    -2.3858942
C          -2.2235171    -1.8374010    -2.2555373
H          -2.6296415    -2.4216744    -3.0766766
N          -0.7387301     0.4036947     0.8209226
O          -1.8778992     1.1350213     1.0208202
N          -2.8980150     0.7932410     0.1739847
24
030_C11H9N3O_2-0-16-17 (-135,) energy =    -663.9365101
C           1.0809174    -0.0136242     0.1068023
H           1.0229234     0.9323593     0.6727927
C           2.0866833     0.1344118    -1.0217752
H           1.9571246     0.9597291    -1.7153071
C           3.1031083    -0.7190643    -1.2157973
H           3.8000865    -0.6098861    -2.0402652
N           3.3328876    -1.8053606    -0.3846846
H           4.1791930    -2.3406426    -0.4859290
C           2.5685655    -1.9391468     0.7637898
H           2.8644016    -2.7450885     1.4279178
C           1.5360840    -1.1271946     1.0409060
H           0.9718337    -1.2854108     1.9547777
C          -3.1309185    -0.7945345    -1.1334932
H          -4.1573581    -0.9919581    -1.4215170
C          -2.0553481    -1.5260712    -1.7163633
C          -0.6866145    -1.2753022    -1.3432873
C          -0.3501483    -0.2675505    -0.3735670
C          -1.4224829     0.3984672     0.1664464
H          -1.2329468     1.1668846     0.9127698
C          -2.7894118     0.1480953    -0.2045241
H          -3.5663123     0.7359353     0.2765826
N           0.0895617    -2.1025609    -2.0259133
O          -0.7716820    -2.8361530    -2.7960473
N          -2.0855711    -2.4929660    -2.6170627
24
030_C11H9N3O_2-0-16-17 (-120,) energy =    -663.9371389
C           1.0537826    -0.0900228     0.2022507
H           0.9781626     0.7994884     0.8519784
C           2.0309597     0.1984344    -0.9263578
H           1.8578130     1.0789657    -1.5373927
C           3.0679442    -0.6018624    -1.2173301
H           3.7443199    -0.3952404    -2.0405458
N           3.3500870    -1.7498761    -0.4920182
H           4.2194327    -2.2335720    -0.6457045
C           2.6179587    -2.0090889     0.6570094
H           2.9562913    -2.8587309     1.2414615
C           1.5633572    -1.2644918     1.0234528
H           1.0260594    -1.5225759     1.9308374
C          -3.1227979    -0.7200156    -1.2273703
H          -4.1391101    -0.8731766    -1.5726079
C          -2.0669370    -1.5727801    -1.6637449
C          -0.7130744    -1.3801756    -1.2126602
C          -0.3710926    -0.3188893    -0.3042520
C          -1.4227533     0.4718440     0.0863219
H          -1.2284051     1.2917856     0.7741598
C          -2.7761244     0.2808209    -0.3634532
H          -3.5383565     0.9624753     0.0038739
N           0.0488756    -2.3071542    -1.7707607
O          -0.8070406    -3.0473235    -2.5405808
N          -2.1036245    -2.6087008    -2.4839800
24
030_C11H9N3O_2-0-16-17 (-105,) energy =    -663.9367581
C           1.0362452    -0.1689874     0.2964901
H           0.9396796     0.6576161     1.0226208
C           1.9818324     0.2612071    -0.8155109
H           1.7622452     1.1844942    -1.3424066
C           3.0428092    -0.4700391    -1.1916428
H           3.6967095    -0.1655779    -2.0027208
N           3.3835186    -1.6616304    -0.5698861
H           4.2606440    -2.1043079    -0.7882908
C           2.6823556    -2.0502586     0.5623204
H           3.0656773    -2.9320014     1.0654948
C           1.6032497    -1.3870217     1.0042274
H           1.0931081    -1.7454013     1.8929919
C          -3.0930977    -0.6471188    -1.3168607
H          -4.0946801    -0.7547945    -1.7177891
C          -2.0835675    -1.6110355    -1.6062803
C          -0.7490175    -1.4802101    -1.0806474
C          -0.3835280    -0.3752760    -0.2355073
C          -1.3880628     0.5292102     0.0036415
H          -1.1719120     1.3916459     0.6303826
C          -2.7212787     0.4002104    -0.5211584
H          -3.4474021     1.1677823    -0.2678346
N          -0.0271654    -2.5005794    -1.5165021
O          -0.8888329    -3.2371387    -2.2833623
N          -2.1494629    -2.7047486    -2.3455913
24
030_C11H9N3O_2-0-16-17 (-90,) energy =    -663.9354123
C           1.0077620    -0.2627956     0.3583733
H           0.8829119     0.4849612     1.1620266
C           1.9299880     0.3191367    -0.7042011
H           1.6682808     1.2802481    -1.1352648
C           3.0180228    -0.3264118    -1.1532698
H           3.6559875     0.0849830    -1.9291883
N           3.4082831    -1.5616526    -0.6566518
H           4.3151788    -1.9263897    -0.8980196
C           2.7344600    -2.0835767     0.4397931
H           3.1596152    -2.9911618     0.8555052
C           1.6289041    -1.5157746     0.9435012
H           1.1409381    -1.9815405     1.7939525
C          -3.0723429    -0.6028382    -1.4125243
H          -4.0584406    -0.6694881    -1.8581944
C          -2.1348035    -1.6666910    -1.5527645
C          -0.8193104    -1.5930935    -0.9680505
C          -0.4062442    -0.4458992    -0.2047521
C          -1.3411238     0.5561941    -0.1137187
H          -1.0838467     1.4553248     0.4422528
C          -2.6521622     0.4847021    -0.6989958
H          -3.3215498     1.3292514    -0.5602808
N          -0.1668787    -2.7051410    -1.2719454
O          -1.0515058    -3.4392212    -2.0144504
N          -2.2581208    -2.8166058    -2.1926701
24
030_C11H9N3O_2-0-16-17 (-75,) energy =    -663.9335962
C           1.0018583    -0.3440641     0.3938749
H           0.8533730     0.2961929     1.2824848
C           1.9186821     0.3907063    -0.5755402
H           1.6270706     1.3852327    -0.8979528
C           3.0406258    -0.1533547    -1.0715632
H           3.6754956     0.3729051    -1.7775541
N           3.4677344    -1.4291975    -0.7265393
H           4.4174467    -1.6948428    -0.9339715
C           2.7927230    -2.0992741     0.2887003
H           3.2418856    -3.0363260     0.6007067
C           1.6551396    -1.6390690     0.8287560
H           1.1668179    -2.2288794     1.5976912
C          -3.0514580    -0.5229577    -1.4724850
H          -4.0287506    -0.5476338    -1.9411597
C          -2.2182499    -1.6778402    -1.4617229
C          -0.9136037    -1.6634439    -0.8464028
C          -0.4081509    -0.4803208    -0.2037554
C          -1.2484339     0.6062339    -0.2498441
H          -0.9214398     1.5341909     0.2148960
C          -2.5456022     0.5931319    -0.8664889
H          -3.1336105     1.5064651    -0.8419463
N          -0.3727460    -2.8644674    -0.9956254
O          -1.3106425    -3.5903941    -1.6771509
N          -2.4428617    -2.8780349    -1.9679452
24
030_C11H9N3O_2-0-16-17 (-60,) energy =    -663.9321005
C           0.9922689    -0.4321909     0.4414139
H           0.7924806     0.0639415     1.4082119
C           1.9240027     0.4579305    -0.3710497
H           1.6449180     1.4957074    -0.5218020
C           3.0518844     0.0054174    -0.9394062
H           3.6927598     0.6441099    -1.5392245
N           3.4803059    -1.3103605    -0.8079238
H           4.4417093    -1.5225421    -1.0258469
C           2.8195761    -2.1214457     0.1117716
H           3.2875936    -3.0818465     0.3008640
C           1.6775712    -1.7554054     0.7111809
H           1.2080029    -2.4482586     1.4003686
C          -3.0157403    -0.5134806    -1.5495992
H          -3.9823259    -0.5175052    -2.0404660
C          -2.2856077    -1.7215306    -1.3661670
C          -0.9962682    -1.7372778    -0.7179461
C          -0.3965118    -0.5263602    -0.2256970
C          -1.1469611     0.6084070    -0.4234685
H          -0.7555154     1.5593841    -0.0696993
C          -2.4290182     0.6240875    -1.0696948
H          -2.9372939     1.5786402    -1.1747342
N          -0.5688210    -2.9924278    -0.6827649
O          -1.5556770    -3.7188014    -1.2895522
N          -2.6097819    -2.9554796    -1.7120288
24
030_C11H9N3O_2-0-16-17 (-45,) energy =    -663.9318769
C           0.9724713    -0.4969401     0.4711640
H           0.7044363    -0.1763128     1.4927392
C           1.9186829     0.5299405    -0.1348199
H           1.6814994     1.5845357    -0.0398126
C           3.0293173     0.1855546    -0.8047479
H           3.6787017     0.9228133    -1.2663905
N           3.4353183    -1.1363658    -0.9442684
H           4.3866238    -1.3085336    -1.2320757
C           2.8205825    -2.0856884    -0.1285022
H           3.3145798    -3.0508448    -0.0868136
C           1.7010643    -1.8248959     0.5615701
H           1.2760321    -2.6079830     1.1771269
C          -2.9818987    -0.5191123    -1.6417727
H          -3.9404324    -0.5151782    -2.1481485
C          -2.3564925    -1.7429895    -1.2715442
C          -1.0799979    -1.7681284    -0.5989457
C          -0.3769906    -0.5525647    -0.2839432
C          -1.0374986     0.5980727    -0.6425354
H          -0.5742147     1.5563150    -0.4265807
C          -2.3085288     0.6232059    -1.3116280
H          -2.7353889     1.5912538    -1.5592365
N          -0.7674356    -3.0350005    -0.3608737
O          -1.8068484    -3.7599876    -0.8737919
N          -2.7840370    -2.9831644    -1.4337072
24
030_C11H9N3O_2-0-16-17 (-30,) energy =    -663.9336811
C           0.9615054    -0.5965770     0.4881050
H           0.6442256    -0.4460475     1.5337302
C           1.8972169     0.5281398     0.0761235
H           1.6576438     1.5468788     0.3646645
C           3.0094877     0.3160490    -0.6449052
H           3.6534583     1.1275849    -0.9690897
N           3.4274224    -0.9587778    -1.0070181
H           4.3775467    -1.0657647    -1.3289233
C           2.8471887    -2.0350119    -0.3335718
H           3.3698623    -2.9806841    -0.4340475
C           1.7328529    -1.9054086     0.4002758
H           1.3356393    -2.7753258     0.9076213
C          -2.9471169    -0.5390284    -1.7000410
H          -3.9021095    -0.5208470    -2.2128086
C          -2.4339724    -1.7489835    -1.1513670
C          -1.1641604    -1.7876741    -0.4697589
C          -0.3505304    -0.6086997    -0.3269577
C          -0.9100775     0.5350581    -0.8404337
H          -0.3592860     1.4667888    -0.7595647
C          -2.1742577     0.5739694    -1.5253059
H          -2.5140495     1.5308767    -1.9120647
N          -0.9659253    -3.0255182    -0.0401546
O          -2.0679820    -3.7249134    -0.4483442
N          -2.9715121    -2.9562364    -1.1305344
24
030_C11H9N3O_2-0-16-17 (-15,) energy =    -663.9363764
C           0.9595630    -0.6827629     0.4789601
H           0.6315253    -0.6773841     1.5319953
C           1.8680093     0.5049257     0.2206261
H           1.5882575     1.4750715     0.6205079
C           3.0025774     0.4095579    -0.4908591
H           3.6317706     1.2701356    -0.6958178
N           3.4622867    -0.7992362    -0.9994535
H           4.4241391    -0.8442896    -1.3006245
C           2.8872626    -1.9667391    -0.4934151
H           3.4283928    -2.8814451    -0.7131910
C           1.7555020    -1.9576369     0.2245495
H           1.3583212    -2.8936729     0.5978630
C          -2.9171746    -0.5342401    -1.7449346
H          -3.8673650    -0.4988364    -2.2656497
C          -2.5050159    -1.7101358    -1.0532092
C          -1.2429440    -1.7650904    -0.3623644
C          -0.3388759    -0.6460166    -0.3466005
C          -0.7983443     0.4703433    -0.9972856
H          -0.1707099     1.3558444    -1.0178483
C          -2.0558187     0.5255044    -1.6960880
H          -2.3180869     1.4532850    -2.1973196
N          -1.1349502    -2.9536710     0.2101656
O          -2.2871509    -3.6129310    -0.1209122
N          -3.1321748    -2.8628105    -0.8945335
24
030_C11H9N3O_2-0-16-17 (0,) energy =    -663.9385137
C           0.9656900    -0.7545817     0.4672099
H           0.6508735    -0.8722811     1.5174871
C           1.8403144     0.4759716     0.3311473
H           1.5174405     1.3980563     0.8055277
C           2.9901869     0.4764933    -0.3619988
H           3.6002078     1.3677434    -0.4720801
N           3.4896099    -0.6647798    -0.9794723
H           4.4601849    -0.6611486    -1.2548909
C           2.9206687    -1.8905463    -0.6282699
H           3.4752780    -2.7659816    -0.9506603
C           1.7761349    -1.9809784     0.0632213
H           1.3795430    -2.9588110     0.3114852
C          -2.8936358    -0.5282097    -1.7673925
H          -3.8385869    -0.4780774    -2.2964062
C          -2.5676036    -1.6535746    -0.9549350
C          -1.3136601    -1.7213799    -0.2533866
C          -0.3369966    -0.6709209    -0.3397813
C          -0.7045260     0.3962518    -1.1172367
H          -0.0120060     1.2261781    -1.2211260
C          -1.9564525     0.4653379    -1.8260806
H          -2.1520564     1.3501697    -2.4257744
N          -1.2770351    -2.8526726     0.4309895
O          -2.4694113    -3.4677994     0.1590374
N          -3.2664407    -2.7436294    -0.6881084
24
030_C11H9N3O_2-0-16-17 (15,) energy =    -663.9395668
C           0.9849792    -0.8299200     0.4434810
H           0.6928765    -1.0664171     1.4795738
C           1.8192422     0.4347606     0.4265506
H           1.4529802     1.3022912     0.9674284
C           2.9791688     0.5306763    -0.2428321
H           3.5630309     1.4457302    -0.2619900
N           3.5208817    -0.5327674    -0.9580020
H           4.4975395    -0.4825657    -1.2059187
C           2.9664704    -1.7984987    -0.7605781
H           3.5368080    -2.6216254    -1.1791121
C           1.8136300    -1.9859874    -0.1029329
H           1.4263561    -2.9917818     0.0189376
C          -2.8680758    -0.5359313    -1.7839864
H          -3.8085938    -0.4747307    -2.3197342
C          -2.6161332    -1.5962810    -0.8645123
C          -1.3686649    -1.6756520    -0.1540163
C          -0.3292112    -0.7023974    -0.3335408
C          -0.6180707     0.2985825    -1.2239821
H           0.1297900     1.0657526    -1.4025690
C          -1.8654552     0.3812235    -1.9390855
H          -2.0032344     1.2120346    -2.6258066
N          -1.3959872    -2.7408237     0.6292279
O          -2.6244712    -3.3048283     0.4103661
N          -3.3789040    -2.6134320    -0.5014058
24
030_C11H9N3O_2-0-16-17 (30,) energy =    -663.9395848
C           1.0040798    -0.9287977     0.4013268
H           0.7347378    -1.2826235     1.4090571
C           1.7904448     0.3623779     0.5128120
H           1.3744618     1.1664787     1.1122316
C           2.9618982     0.5573636    -0.1131316
H           3.5114128     1.4903490    -0.0346952
N           3.5569875    -0.4144758    -0.9132754
H           4.5404587    -0.3178758    -1.1165779
C           3.0246934    -1.7038345    -0.8782899
H           3.6170542    -2.4608182    -1.3824376
C           1.8618774    -1.9890192    -0.2750812
H           1.4913806    -3.0088020    -0.2906965
C          -2.8609413    -0.5422112    -1.7861698
H          -3.8021437    -0.4610446    -2.3180883
C          -2.6774900    -1.5228492    -0.7677268
C          -1.4291392    -1.6278918    -0.0619575
C          -0.3235515    -0.7591450    -0.3432215
C          -0.5445865     0.1635132    -1.3329914
H           0.2575171     0.8494132    -1.5905259
C          -1.7925696     0.2733798    -2.0417929
H          -1.8766489     1.0391590    -2.8081507
N          -1.5234275    -2.6095633     0.8196746
O          -2.7936362    -3.0961874     0.6657400
N          -3.5086947    -2.4399636    -0.3023159
24
030_C11H9N3O_2-0-16-17 (45,) energy =    -663.9390694
C           1.0258591    -1.0611947     0.3362535
H           0.7793918    -1.5387008     1.2969175
C           1.7412355     0.2516832     0.5959733
H           1.2654400     0.9698172     1.2566967
C           2.9152380     0.5689120     0.0283513
H           3.4105047     1.5168137     0.2147312
N           3.5792943    -0.2814430    -0.8533545
H           4.5645864    -0.1253681    -1.0046610
C           3.0998451    -1.5843658    -0.9881159
H           3.7307755    -2.2491466    -1.5696700
C           1.9366396    -1.9868816    -0.4559440
H           1.6087150    -3.0093145    -0.6147875
C          -2.8667783    -0.5702498    -1.7810546
H          -3.8140746    -0.4606994    -2.2968573
C          -2.7355335    -1.4540177    -0.6706499
C          -1.4786636    -1.5975806     0.0137537
C          -0.3133425    -0.8633995    -0.3820242
C          -0.4861127    -0.0301660    -1.4579487
H           0.3623863     0.5536773    -1.8037293
C          -1.7409924     0.1173856    -2.1455981
H          -1.7836725     0.8051554    -2.9857524
N          -1.6300343    -2.4731582     0.9944511
O          -2.9409537    -2.8581200     0.9194282
N          -3.6276510    -2.2418700    -0.0940350
24
030_C11H9N3O_2-0-16-17 (60,) energy =    -663.9387601
C           1.0315810    -1.1768622     0.2576707
H           0.8024262    -1.7732629     1.1533216
C           1.6691616     0.1367894     0.6784274
H           1.1418266     0.7486792     1.4037121
C           2.8304943     0.5814672     0.1751600
H           3.2645524     1.5302219     0.4749283
N           3.5566955    -0.1248083    -0.7825996
H           4.5348428     0.0981932    -0.8903180
C           3.1503297    -1.4252687    -1.0783409
H           3.8242826    -1.9836514    -1.7205032
C           2.0015363    -1.9473104    -0.6231435
H           1.7328635    -2.9588083    -0.9115478
C          -2.8821303    -0.5413381    -1.7827107
H          -3.8353010    -0.3893585    -2.2764699
C          -2.7917734    -1.3076708    -0.5847618
C          -1.5265391    -1.5084073     0.0695049
C          -0.3114666    -0.9527125    -0.4470798
C          -0.4474181    -0.2237304    -1.6014967
H           0.4397729     0.2231959    -2.0415250
C          -1.7096741    -0.0199754    -2.2595459
H          -1.7199430     0.5729111    -3.1700527
N          -1.7232950    -2.2491512     1.1486975
O          -3.0683795    -2.4978712     1.1611629
N          -3.7331555    -1.9281571     0.1067863
24
030_C11H9N3O_2-0-16-17 (75,) energy =    -663.9389927
C           1.0515470    -1.3160990     0.1828379
H           0.8444404    -2.0236978     0.9996289
C           1.6096015    -0.0274256     0.7682358
H           1.0414741     0.4613115     1.5535594
C           2.7446660     0.5411065     0.3360933
H           3.1183407     1.4724171     0.7499282
N           3.5189279    -0.0046756    -0.6873474
H           4.4825311     0.2868570    -0.7550708
C           3.1942423    -1.2830439    -1.1365398
H           3.9082567    -1.7247936    -1.8246928
C           2.0731781    -1.9197862    -0.7643171
H           1.8696721    -2.9054737    -1.1714853
C          -2.8858492    -0.5372987    -1.7590877
H          -3.8460677    -0.3441194    -2.2239397
C          -2.8028650    -1.1754838    -0.4875310
C          -1.5282530    -1.4322887     0.1275364
C          -0.2954966    -1.0659400    -0.5044821
C          -0.4252108    -0.4505802    -1.7236754
H           0.4752864    -0.1502305    -2.2521230
C          -1.6972833    -0.1917119    -2.3432005
H          -1.7012051     0.2978028    -3.3132777
N          -1.7341174    -2.0257129     1.2924269
O          -3.0943419    -2.1337053     1.3935965
N          -3.7591661    -1.6178094     0.3118451
24
030_C11H9N3O_2-0-16-17 (90,) energy =    -663.9395119
C           1.0729850    -1.4344920     0.0891567
H           0.8815527    -2.2391520     0.8159271
C           1.5611175    -0.2012301     0.8367612
H           0.9699268     0.1511442     1.6758670
C           2.6589379     0.4795670     0.4779629
H           2.9825614     1.3736135     1.0014416
N           3.4604044     0.1007877    -0.5992401
H           4.4011842     0.4634726    -0.6356479
C           3.2208159    -1.1405227    -1.1827238
H           3.9706988    -1.4665624    -1.8968266
C           2.1384465    -1.8800879    -0.8937894
H           2.0046407    -2.8332578    -1.3963390
C          -2.8754194    -0.5437803    -1.7793264
H          -3.8394380    -0.3215458    -2.2228080
C          -2.7797811    -1.0511999    -0.4505533
C          -1.5002371    -1.3471149     0.1350641
C          -0.2743981    -1.1517733    -0.5824743
C          -0.4156626    -0.6571868    -1.8535239
H           0.4788680    -0.4881867    -2.4463209
C          -1.6939051    -0.3603896    -2.4445937
H          -1.7074588     0.0240998    -3.4608393
N          -1.6921765    -1.7972776     1.3641431
O          -3.0504191    -1.7823544     1.5332320
N          -3.7262269    -1.3283136     0.4304376
24
030_C11H9N3O_2-0-16-17 (105,) energy =    -663.9396507
C           1.0893333    -1.5045253     0.0113794
H           0.9065333    -2.3880870     0.6444291
C           1.5411923    -0.3556413     0.9035238
H           0.9507315    -0.1339191     1.7860110
C           2.6044668     0.4068856     0.6123605
H           2.9049880     1.2455256     1.2323549
N           3.4043301     0.1826731    -0.5094395
H           4.3233268     0.5987630    -0.5201105
C           3.2247352    -1.0071491    -1.2085892
H           3.9936592    -1.2335501    -1.9407874
C           2.1776246    -1.8196947    -0.9943722
H           2.0951544    -2.7340874    -1.5741942
C          -2.8774288    -0.5498405    -1.7890261
H          -3.8467883    -0.3179628    -2.2155537
C          -2.7502825    -0.9221134    -0.4184722
C          -1.4640616    -1.2304163     0.1452823
C          -0.2609382    -1.1803191    -0.6350918
C          -0.4329640    -0.8185353    -1.9458008
H           0.4418895    -0.7625637    -2.5871867
C          -1.7188806    -0.5080194    -2.5148599
H          -1.7564399    -0.2317050    -3.5651231
N          -1.6259177    -1.5441013     1.4197677
O          -2.9731907    -1.4343036     1.6387369
N          -3.6705501    -1.0539082     0.5217809
24
030_C11H9N3O_2-0-16-17 (120,) energy =    -663.9388580
C           1.0932792    -1.5425991    -0.0577255
H           0.9173800    -2.4924841     0.4758987
C           1.5283334    -0.4993541     0.9627381
H           0.9456127    -0.3988024     1.8712683
C           2.5673515     0.3195940     0.7475927
H           2.8579366     1.0886324     1.4561958
N           3.3585703     0.2418201    -0.4007819
H           4.2619198     0.6903972    -0.3774943
C           3.2171275    -0.8805433    -1.2104048
H           3.9973114    -1.0157774    -1.9531332
C           2.1949025    -1.7409723    -1.0778884
H           2.1498693    -2.6074988    -1.7307014
C          -2.9039942    -0.5874935    -1.7989312
H          -3.8812143    -0.3658637    -2.2127354
C          -2.7350290    -0.8203688    -0.4023878
C          -1.4388012    -1.1141338     0.1472603
C          -0.2635707    -1.1836173    -0.6755793
C          -0.4789917    -0.9662122    -2.0114481
H           0.3703000    -1.0066808    -2.6871083
C          -1.7746024    -0.6673902    -2.5653187
H          -1.8431168    -0.5030145    -3.6372870
N          -1.5669672    -1.2986276     1.4506578
O          -2.9014272    -1.1230243     1.7009518
N          -3.6251243    -0.8290577     0.5751180
24
030_C11H9N3O_2-0-16-17 (135,) energy =    -663.9370131
C           1.1075403    -1.5622924    -0.1199840
H           0.9419913    -2.5670459     0.3085409
C           1.5418488    -0.6407819     1.0109075
H           0.9795001    -0.6609625     1.9363547
C           2.5570547     0.2230570     0.8705261
H           2.8492935     0.9111527     1.6573540
N           3.3253566     0.2935659    -0.2945131
H           4.2130662     0.7697169    -0.2397890
C           3.2097203    -0.7485030    -1.2080113
H           3.9908659    -0.7937221    -1.9605859
C           2.2121508    -1.6456259    -1.1529168
H           2.1964806    -2.4564511    -1.8746858
C          -2.9333883    -0.6239143    -1.7816560
H          -3.9208676    -0.4155493    -2.1775603
C          -2.7107590    -0.7105374    -0.3764214
C          -1.4011806    -0.9840510     0.1548362
C          -0.2613348    -1.1739478    -0.7012697
C          -0.5342343    -1.1090325    -2.0434069
H           0.2810435    -1.2488942    -2.7466544
C          -1.8414262    -0.8278322    -2.5777184
H          -1.9494356    -0.7810926    -3.6579762
N          -1.4893533    -1.0343910     1.4743262
O          -2.8078062    -0.7942361     1.7503725
N          -3.5641055    -0.5935282     0.6262756
24
030_C11H9N3O_2-0-16-17 (150,) energy =    -663.9344302
C           1.1282601    -1.5982938    -0.1842025
H           0.9948452    -2.6523229     0.1202654
C           1.5522188    -0.8142323     1.0469938
H           1.0141457    -0.9708281     1.9729025
C           2.5303724     0.1014491     1.0008369
H           2.8136957     0.6951819     1.8639833
N           3.2714223     0.3460492    -0.1578216
H           4.1347563     0.8586781    -0.0606487
C           3.1904824    -0.5900000    -1.1824930
H           3.9662186    -0.5195206    -1.9386965
C           2.2322524    -1.5296863    -1.2215884
H           2.2532800    -2.2618957    -2.0223550
C          -2.9536241    -0.6718863    -1.7712446
H          -3.9481000    -0.4687738    -2.1520547
C          -2.6755836    -0.6031322    -0.3758600
C          -1.3565450    -0.8676615     0.1411136
C          -0.2583345    -1.1989050    -0.7283723
C          -0.5896004    -1.2861246    -2.0574387
H           0.1860916    -1.5399345    -2.7729979
C          -1.9044448    -1.0167534    -2.5755635
H          -2.0533677    -1.0947637    -3.6490818
N          -1.4034143    -0.7644098     1.4610249
O          -2.7007852    -0.4401693     1.7472003
N          -3.4879196    -0.3370648     0.6321929
24
030_C11H9N3O_2-0-16-17 (165,) energy =    -663.9322198
C           1.1880246    -1.6431579    -0.2615281
H           1.1275832    -2.7350475    -0.1058933
C           1.6045751    -1.0072298     1.0516333
H           1.1012759    -1.3125146     1.9600688
C           2.5357549    -0.0448483     1.1176704
H           2.8073895     0.4372296     2.0510833
N           3.2329801     0.3992684    -0.0069164
H           4.0740308     0.9351572     0.1449596
C           3.1659764    -0.3844077    -1.1534150
H           3.9082652    -0.1608334    -1.9133396
C           2.2579740    -1.3613782    -1.3037004
H           2.2900195    -1.9626644    -2.2062656
C          -2.9398281    -0.6967455    -1.7308698
H          -3.9399314    -0.4811740    -2.0893856
C          -2.5829414    -0.4578486    -0.3736150
C          -1.2562876    -0.7371170     0.1199509
C          -0.2298327    -1.2572764    -0.7444214
C          -0.6369297    -1.4939494    -2.0352037
H           0.0798057    -1.8963604    -2.7445024
C          -1.9581382    -1.2155446    -2.5272145
H          -2.1681540    -1.4285138    -3.5718282
N          -1.2305729    -0.4453732     1.4133523
O          -2.4892497     0.0035534     1.7019904
N          -3.3251794     0.0016756     0.6188339
24
030_C11H9N3O_2-0-16-17 (180,) energy =    -663.9318496
C           1.2046254    -1.6832162    -0.3494794
H           1.2521842    -2.7863277    -0.3607477
C           1.5990996    -1.1936769     1.0294079
H           1.0974813    -1.6197080     1.8907076
C           2.5113908    -0.2323921     1.2319311
H           2.7626601     0.1230277     2.2257565
N           3.1928481     0.3898463     0.1882570
H           4.0305961     0.9061510     0.4090713
C           3.0870960    -0.1743686    -1.0775253
H           3.7702085     0.2228926    -1.8217788
C           2.2028522    -1.1414044    -1.3653394
H           2.1782686    -1.5347832    -2.3764213
C          -2.9526274    -0.7804841    -1.7519139
H          -3.9537401    -0.5620821    -2.1059182
C          -2.5259655    -0.3563765    -0.4620019
C          -1.1970224    -0.6353122     0.0271622
C          -0.2446709    -1.3559473    -0.7745988
C          -0.7132800    -1.7508926    -2.0052703
H          -0.0500489    -2.3087823    -2.6616084
C          -2.0353866    -1.4730892    -2.4916669