19
159_C5H11NO2_1-0-5-6 (-165,) energy =    -402.3384519
N           1.1412275    -0.2337858     0.2605631
C           0.0068495     0.5385368    -0.2282666
H          -0.5138891    -0.0043818    -1.0302884
H           0.3735129     1.4884689    -0.6144527
H          -0.7058527     0.7195600     0.5851114
C           2.4022114     0.1525559    -0.1166947
C           3.5638481    -0.8296912     0.0906099
O           3.7184000    -1.1916898     1.4531780
C           4.8675833    -1.9895776     1.6683216
H           4.9097273    -2.2073236     2.7383167
H           5.7858031    -1.4600601     1.3716403
H           4.8159818    -2.9374229     1.1088160
H           4.4571821    -0.3117387    -0.2794106
H           3.4038461    -1.7274442    -0.5338821
O           2.6275584     1.2161846    -0.6869539
C           0.8105351    -1.5406393     0.8108132
H           0.3989318    -2.2088815     0.0388075
H           0.0491087    -1.4206400     1.5908000
H           1.6896545    -1.9936790     1.2644721
19
159_C5H11NO2_1-0-5-6 (-150,) energy =    -402.3351844
N           1.1355262    -0.1529717     0.3588412
C           0.0222170     0.4943183    -0.3259206
H          -0.3481426    -0.1426882    -1.1429318
H           0.3669234     1.4445816    -0.7314342
H          -0.8028015     0.6739754     0.3730108
C           2.4116205     0.2367680     0.0190787
C           3.5497003    -0.7893901     0.1305502
O           3.7785964    -1.1925530     1.4714728
C           4.8968900    -2.0520680     1.5895979
H           5.0006851    -2.2977592     2.6492628
H           5.8188557    -1.5620390     1.2411125
H           4.7580534    -2.9821833     1.0153436
H           4.4370542    -0.2950970    -0.2836749
H           3.3113104    -1.6638353    -0.5016877
O           2.6503341     1.3229936    -0.4981572
C           0.8305720    -1.4705317     0.9025849
H           0.5542640    -2.1855226     0.1109663
H          -0.0209133    -1.3848002     1.5874289
H           1.6835560    -1.8520172     1.4611347
19
159_C5H11NO2_1-0-5-6 (-135,) energy =    -402.3302054
N           1.0403938    -0.7277627     0.7040262
C           0.1168529     0.3620643     1.0179344
H           0.2293797     1.1892352     0.3002620
H           0.3307049     0.7213881     2.0241517
H          -0.9183024     0.0052351     0.9773159
C           2.2848167    -0.6913235     1.3272852
C           3.5223956    -0.9800500     0.4483990
O           4.7311085    -0.7711632     1.1186354
C           5.0628699    -1.7957696     2.0434944
H           6.0502680    -1.5469290     2.4401551
H           5.1174074    -2.7773589     1.5439894
H           4.3430269    -1.8441196     2.8670995
H           3.5008423    -0.2722865    -0.3901160
H           3.4798763    -1.9947498     0.0150420
O           2.4148704    -0.3036218     2.4776367
C           0.8991722    -1.2259208    -0.6594322
H           1.1934393    -0.4871905    -1.4234194
H          -0.1518896    -1.4810841    -0.8298936
H           1.4854834    -2.1352128    -0.8055597
19
159_C5H11NO2_1-0-5-6 (-120,) energy =    -402.3243558
N           0.9921510    -0.7835333     0.7671339
C           0.1638935     0.4106927     0.9512042
H           0.4152587     1.1876299     0.2112825
H           0.3252196     0.8001276     1.9566150
H          -0.8947592     0.1534620     0.8372057
C           2.2448552    -0.7476548     1.3978282
C           3.4954425    -0.8747896     0.5009397
O           4.6949912    -0.6952623     1.1952144
C           5.0675365    -1.8070494     1.9948074
H           6.0403338    -1.5645935     2.4294280
H           5.1681712    -2.7192639     1.3836124
H           4.3465568    -1.9851933     2.7999678
H           3.4334216    -0.0645948    -0.2377438
H           3.4988264    -1.8231172    -0.0632563
O           2.3508447    -0.4376833     2.5712915
C           0.8859250    -1.3330724    -0.5820930
H           1.2604489    -0.6533176    -1.3664320
H          -0.1702534    -1.5313491    -0.7919983
H           1.4190830    -2.2836914    -0.6546493
19
159_C5H11NO2_1-0-5-6 (-105,) energy =    -402.3181025
N           0.9384914    -0.8357473     0.8266335
C           0.2370751     0.4507065     0.8876850
H           0.6326920     1.1687061     0.1493087
H           0.3423617     0.8685996     1.8901932
H          -0.8281450     0.2986273     0.6832444
C           2.2016678    -0.8275688     1.4676734
C           3.4544683    -0.7976112     0.5679458
O           4.6498773    -0.6456723     1.2762346
C           5.0760889    -1.8244762     1.9414710
H           6.0386914    -1.5901489     2.4023339
H           5.2150463    -2.6543524     1.2289984
H           4.3680502    -2.1281329     2.7204875
H           3.3498602     0.0898448    -0.0713464
H           3.4935553    -1.6715119    -0.1041758
O           2.2895112    -0.6412480     2.6649587
C           0.8595995    -1.4288853    -0.5084592
H           1.2932492    -0.7993010    -1.3049725
H          -0.1962048    -1.5884040    -0.7517567
H           1.3513196    -2.4049559    -0.5216315
19
159_C5H11NO2_1-0-5-6 (-90,) energy =    -402.3214753
N           1.3342267    -0.5248837     0.0745957
C           0.6065982     0.6597095     0.5614562
H           0.0420438     1.1023446    -0.2653362
H           1.3090518     1.4117870     0.9341731
H          -0.0940909     0.4049742     1.3716466
C           2.2660857    -1.0279911     1.0301244
C           3.6517982    -0.3961176     0.8833689
O           4.5096809    -0.5802505     1.9761749
C           5.1104534    -1.8666796     2.0475167
H           5.8185289    -1.8300323     2.8794508
H           5.6635534    -2.0947324     1.1216562
H           4.3702248    -2.6518154     2.2292654
H           3.5614226     0.6829377     0.7139231
H           4.0683920    -0.8249967    -0.0460245
O           2.0597031    -2.0114464     1.7133914
C           0.3766370    -1.5541269    -0.3591248
H          -0.2019691    -1.1497517    -1.1957764
H          -0.3138534    -1.8606308     0.4392349
H           0.9196223    -2.4384405    -0.7004696
19
159_C5H11NO2_1-0-5-6 (-75,) energy =    -402.3267988
N           1.3029061    -0.5953316     0.0929136
C           0.6854889     0.6678230     0.5217865
H           0.1785816     1.1349253    -0.3288994
H           1.4425930     1.3638943     0.8906371
H          -0.0528129     0.5029402     1.3210556
C           2.2751815    -1.1396432     0.9552490
C           3.6231659    -0.4078964     0.9124064
O           4.4350641    -0.6081449     2.0391936
C           5.1339802    -1.8463213     2.0571106
H           5.7933729    -1.8139371     2.9284935
H           5.7506708    -1.9624758     1.1507068
H           4.4514607    -2.6969308     2.1404903
H           3.4866626     0.6726415     0.8024649
H           4.1136932    -0.7610845    -0.0122368
O           2.1544196    -2.2349640     1.4766308
C           0.2780445    -1.5637919    -0.3150249
H          -0.2914376    -1.1312594    -1.1438089
H          -0.4141125    -1.8151858     0.5011612
H           0.7581717    -2.4848261    -0.6490961
19
159_C5H11NO2_1-0-5-6 (-60,) energy =    -402.3310278
N           1.2933063    -0.6112171    -0.1453194
C           1.0147683     0.4182310     0.8649573
H           0.3071804     1.1511519     0.4633887
H           1.9360454     0.9305297     1.1493742
H           0.5785749    -0.0285429     1.7708338
C           2.4731626    -1.3391648     0.0061910
C           3.7735606    -0.5130467    -0.0137415
O           4.2237600    -0.1199221     1.2756610
C           4.7215034    -1.1977940     2.0556692
H           5.0662865    -0.7653609     2.9983628
H           5.5664357    -1.6931848     1.5536516
H           3.9518757    -1.9533681     2.2611825
H           3.6269548     0.4119361    -0.5775380
H           4.5249890    -1.1361502    -0.5191323
O           2.5074121    -2.5613933    -0.0445481
C           0.1143619    -1.4279786    -0.4430559
H          -0.6936527    -0.7621452    -0.7617498
H          -0.2241235    -2.0084665     0.4272804
H           0.3493368    -2.1268815    -1.2466751
19
159_C5H11NO2_1-0-5-6 (-45,) energy =    -402.3355257
N           1.3018919    -0.6578167    -0.1149167
C           1.0755403     0.4332854     0.8340205
H           0.3522753     1.1434787     0.4181620
H           2.0072647     0.9549744     1.0521969
H           0.6740278     0.0482220     1.7832764
C           2.5112517    -1.3301271    -0.1312497
C           3.7842465    -0.4632095    -0.0648725
O           4.1613183    -0.0828122     1.2509429
C           4.6313391    -1.1683487     2.0367124
H           4.9221858    -0.7502474     3.0036397
H           5.5057329    -1.6466937     1.5702841
H           3.8602071    -1.9357514     2.1896456
H           3.6404395     0.4687973    -0.6195653
H           4.5765532    -1.0536109    -0.5447554
O           2.5927350    -2.5334137    -0.3524330
C           0.1165836    -1.4772163    -0.3590570
H          -0.7075440    -0.8193839    -0.6527190
H          -0.1850349    -2.0449042     0.5333409
H           0.3262543    -2.1866782    -1.1593705
19
159_C5H11NO2_1-0-5-6 (-30,) energy =    -402.3382097
N           1.3114634    -0.7053162    -0.0570065
C           1.1036152     0.4490396     0.8110468
H           0.4096432     1.1545736     0.3383011
H           2.0447325     0.9530477     1.0233193
H           0.6686168     0.1348637     1.7711969
C           2.5346567    -1.3137680    -0.2235190
C           3.7906705    -0.4301495    -0.0838146
O           4.1210349    -0.0872117     1.2538298
C           4.5691223    -1.1949363     2.0207305
H           4.8227208    -0.8073892     3.0105509
H           5.4620058    -1.6544488     1.5709418
H           3.7966516    -1.9700649     2.1216914
H           3.6547881     0.5177728    -0.6144158
H           4.6047011    -0.9940586    -0.5578855
O           2.6464604    -2.4818673    -0.5849947
C           0.1216471    -1.5185363    -0.2803416
H          -0.6895080    -0.8739048    -0.6356965
H          -0.2086620    -2.0181852     0.6422023
H           0.3459608    -2.2808253    -1.0254374
19
159_C5H11NO2_1-0-5-6 (-15,) energy =    -402.3396874
N           1.3271591    -0.7444312     0.0493225
C           1.1179491     0.4563969     0.8463898
H           0.4876384     1.1730137     0.3029712
H           2.0654490     0.9237263     1.1052694
H           0.6046727     0.1998818     1.7837810
C           2.5519940    -1.2711059    -0.2752608
C           3.7968557    -0.3809097    -0.0778237
O           4.0969818    -0.0556552     1.2701601
C           4.5160854    -1.1760837     2.0340553
H           4.7536729    -0.8027141     3.0332055
H           5.4122565    -1.6421917     1.5980166
H           3.7310183    -1.9417706     2.1116283
H           3.6679803     0.5747000    -0.5977554
H           4.6246718    -0.9301723    -0.5442681
O           2.6813390    -2.3818838    -0.7846460
C           0.1366355    -1.5473811    -0.1930323
H          -0.6332310    -0.9318872    -0.6742349
H          -0.2743963    -1.9396875     0.7479930
H           0.4046263    -2.3808652    -0.8407219
19
159_C5H11NO2_1-0-5-6 (0,) energy =    -402.3404496
N           1.3442018    -0.7936004     0.1695208
C           1.1363582     0.4601783     0.8796165
H           0.5910043     1.1807388     0.2530985
H           2.0849354     0.8885767     1.1955360
H           0.5344801     0.2762528     1.7790836
C           2.5502649    -1.2534158    -0.2926601
C           3.8042078    -0.3866315    -0.0513229
O           4.0866939    -0.0783043     1.3031597
C           4.4558172    -1.2151639     2.0680454
H           4.6865197    -0.8551488     3.0736590
H           5.3448283    -1.7072827     1.6461686
H           3.6440264    -1.9542639     2.1271086
H           3.7006621     0.5761800    -0.5647629
H           4.6314082    -0.9420672    -0.5114486
O           2.6642933    -2.3043893    -0.9194323
C           0.1435632    -1.5685880    -0.1084484
H          -0.5529248    -0.9893252    -0.7297313
H          -0.3675025    -1.8308955     0.8270628
H           0.4330546    -2.4756973    -0.6371320
19
159_C5H11NO2_1-0-5-6 (15,) energy =    -402.3405299
N           1.3681684    -0.8460773     0.2522177
C           1.1391581     0.4473560     0.8838510
H           0.6201216     1.1367639     0.2011203
H           2.0794081     0.8867729     1.2101681
H           0.5049365     0.3105235     1.7678825
C           2.5424216    -1.2171851    -0.3539622
C           3.8072782    -0.3766388    -0.0813392
O           4.0795190    -0.0815269     1.2765555
C           4.4191719    -1.2286788     2.0394030
H           4.6498202    -0.8778547     3.0482945
H           5.3015389    -1.7371005     1.6226895
H           3.5903757    -1.9491094     2.0895417
H           3.7271824     0.5911668    -0.5906178
H           4.6304175    -0.9401285    -0.5395075
O           2.6277308    -2.1947074    -1.0928552
C           0.1689363    -1.6194194    -0.0423118
H          -0.4696023    -1.1001079    -0.7714595
H          -0.4084736    -1.7691339     0.8773982
H           0.4668864    -2.5808614    -0.4582851
19
159_C5H11NO2_1-0-5-6 (30,) energy =    -402.3396364
N           1.4079164    -0.8536410     0.3207942
C           1.1447334     0.4614711     0.8998758
H           0.6138030     1.1114895     0.1879265
H           2.0756122     0.9329455     1.2093978
H           0.5120694     0.3444684     1.7867522
C           2.5371501    -1.1282637    -0.4170406
C           3.8308694    -0.3525962    -0.0947159
O           4.0819769    -0.0803993     1.2699250
C           4.3745139    -1.2431637     2.0285851
H           4.5960059    -0.9075806     3.0447355
H           5.2510802    -1.7717823     1.6244856
H           3.5240726    -1.9385215     2.0566039
H           3.8089019     0.6214193    -0.5988179
H           4.6395126    -0.9456495    -0.5424810
O           2.5705095    -2.0056432    -1.2740188
C           0.2126861    -1.6293316     0.0045366
H          -0.3744715    -1.1627698    -0.8000188
H          -0.4145312    -1.6988883     0.8994225
H           0.5099823    -2.6251782    -0.3221157
19
159_C5H11NO2_1-0-5-6 (45,) energy =    -402.3373818
N           1.4616374    -0.8664143     0.3684411
C           1.1418704     0.4596531     0.9027209
H           0.5740284     1.0563915     0.1729835
H           2.0559399     0.9836311     1.1788839
H           0.5284061     0.3477059     1.8029895
C           2.5416487    -1.0351738    -0.4793980
C           3.8732660    -0.3525437    -0.1060757
O           4.0907081    -0.0788270     1.2616359
C           4.3339105    -1.2413320     2.0382015
H           4.5348540    -0.9016284     3.0573160
H           5.2103636    -1.7922159     1.6641051
H           3.4666887    -1.9151747     2.0474315
H           3.9426324     0.6114382    -0.6253042
H           4.6550431    -1.0050744    -0.5191449
O           2.5174824    -1.7939240    -1.4405697
C           0.2785258    -1.6603403     0.0383636
H          -0.2986175    -1.2189719    -0.7871434
H          -0.3611753    -1.7182111     0.9246238
H           0.5870013    -2.6616788    -0.2617713
19
159_C5H11NO2_1-0-5-6 (60,) energy =    -402.3334182
N           1.4871849    -0.8915078     0.3972456
C           1.1097895     0.4328086     0.9111683
H           0.5046209     0.9865437     0.1777901
H           2.0051892     1.0037019     1.1583236
H           0.5183538     0.3106520     1.8243500
C           2.5079312    -0.9479785    -0.5489937
C           3.8936699    -0.4073006    -0.1432487
O           4.0932077    -0.0936979     1.2167920
C           4.2847226    -1.2320714     2.0428206
H           4.4741926    -0.8586312     3.0523597
H           5.1541834    -1.8198621     1.7102311
H           3.3984243    -1.8792856     2.0571489
H           4.0947922     0.5114232    -0.7076989
H           4.6095608    -1.1639222    -0.4960845
O           2.4063706    -1.5579219    -1.6033693
C           0.3137787    -1.7010493     0.0554278
H          -0.2806428    -1.2555280    -0.7550241
H          -0.3132698    -1.7904183     0.9479501
H           0.6353990    -2.6919934    -0.2667706
19
159_C5H11NO2_1-0-5-6 (75,) energy =    -402.3277515
N           1.5192175    -0.8922564     0.4220536
C           1.0804863     0.4127807     0.9483183
H           0.4506517     0.9462705     0.2206901
H           1.9529465     1.0209278     1.1946620
H           0.4997226     0.2558936     1.8628248
C           2.4829798    -0.8214707    -0.5986393
C           3.9231836    -0.4738525    -0.1802923
O           4.1318240    -0.0913691     1.1600564
C           4.2739501    -1.1812751     2.0591110
H           4.4669495    -0.7504731     3.0449651
H           5.1271334    -1.8171639     1.7758477
H           3.3657555    -1.7947754     2.1022403
H           4.2803635     0.3490890    -0.8099991
H           4.5183958    -1.3608749    -0.4466177
O           2.2925673    -1.2379883    -1.7290838
C           0.3598799    -1.7162759     0.0533000
H          -0.2604617    -1.2510004    -0.7255857
H          -0.2481158    -1.8667365     0.9508155
H           0.7010335    -2.6840169    -0.3182622
19
159_C5H11NO2_1-0-5-6 (90,) energy =    -402.3208635
N           1.5386913    -0.8804619     0.4611167
C           1.0137709     0.4098053     0.9500959
H           0.3890149     0.9074674     0.1926899
H           1.8474475     1.0633758     1.2203225
H           0.4088813     0.2343585     1.8452482
C           2.4657991    -0.7069652    -0.6040120
C           3.9374818    -0.5499488    -0.1973958
O           4.1803315    -0.1199696     1.1227324
C           4.2879106    -1.1699552     2.0726498
H           4.5077017    -0.6992770     3.0344926
H           5.1135834    -1.8519443     1.8153912
H           3.3563295    -1.7426039     2.1518424
H           4.4104862     0.1691107    -0.8751206
H           4.3968693    -1.5318193    -0.3963722
O           2.1945490    -0.9177636    -1.7710922
C           0.4178764    -1.7501455     0.0646773
H          -0.2215362    -1.3011615    -0.7079579
H          -0.1848044    -1.9494029     0.9563971
H           0.8054658    -2.6962151    -0.3199994
19
159_C5H11NO2_1-0-5-6 (105,) energy =    -402.3182574
N           1.1481508    -0.4202299    -0.3504101
C           0.5473472     0.6141051     0.4981849
H          -0.5447439     0.5353701     0.4544941
H           0.8372142     1.5974543     0.1231136
H           0.8712909     0.5099598     1.5442367
C           2.4750534    -0.1599387    -0.7402821
C           3.6107032    -0.9421635    -0.0619244
O           3.3996521    -0.8871555     1.3362380
C           4.4440244    -1.5031959     2.0650057
H           4.1950935    -1.4056399     3.1245560
H           5.4121055    -1.0143160     1.8762350
H           4.5380480    -2.5715806     1.8129827
H           4.5485800    -0.4494730    -0.3502100
H           3.6600811    -1.9902020    -0.4079060
O           2.7464434     0.7737051    -1.4733850
C           0.8248164    -1.7695333     0.1166287
H          -0.2594097    -1.9069350     0.0397598
H           1.1322534    -1.9556801     1.1548546
H           1.2948794    -2.5134116    -0.5326730
19
159_C5H11NO2_1-0-5-6 (120,) energy =    -402.3245434
N           1.1693612    -0.4189320    -0.2709137
C           0.4098954     0.6496072     0.3783167
H          -0.6617352     0.5207352     0.1878134
H           0.7245614     1.6091947    -0.0332689
H           0.5786741     0.6394984     1.4655431
C           2.4745230    -0.1071873    -0.6476011
C           3.6255201    -0.9269789    -0.0460300
O           3.4488008    -0.9636554     1.3569999
C           4.5100084    -1.6256086     2.0171553
H           4.2878819    -1.5982021     3.0868455
H           5.4740542    -1.1254000     1.8371578
H           4.5968871    -2.6753262     1.6934492
H           4.5516470    -0.4076083    -0.3244980
H           3.6762395    -1.9501340    -0.4600288
O           2.7292744     0.8896708    -1.3053875
C           0.8502701    -1.7400401     0.2649542
H          -0.2055082    -1.9497289     0.0582564
H           1.0216137    -1.8144046     1.3468031
H           1.4426493    -2.5076264    -0.2382000
19
159_C5H11NO2_1-0-5-6 (135,) energy =    -402.3305753
N           1.2088001    -0.4026054    -0.1979878
C           0.3151040     0.6712897     0.2254951
H          -0.7084239     0.4772549    -0.1164760
H           0.6612517     1.6080515    -0.2107933
H           0.3076413     0.7515176     1.3224818
C           2.4956439    -0.0537574    -0.5663845
C           3.6588476    -0.9034848    -0.0364417
O           3.5213146    -1.0396267     1.3644314
C           4.6005477    -1.7443225     1.9456612
H           4.4095065    -1.7925072     3.0206520
H           5.5594539    -1.2314536     1.7736237
H           4.6782224    -2.7688361     1.5469595
H           4.5747981    -0.3600311    -0.3016690
H           3.7047389    -1.8948787    -0.5231136
O           2.7379606     0.9721112    -1.1884743
C           0.8894564    -1.6960941     0.3947741
H          -0.1301179    -1.9705403     0.0990498
H           0.9477944    -1.6814728     1.4907462
H           1.5637626    -2.4681955     0.0211649
19
159_C5H11NO2_1-0-5-6 (150,) energy =    -402.3353754
N           1.2240629    -0.3725288    -0.1189961
C           0.2240278     0.6700096     0.0771751
H          -0.7218019     0.3948076    -0.4053609
H           0.5947250     1.5941526    -0.3646984
H           0.0359563     0.8190497     1.1500564
C           2.4974998     0.0078983    -0.4749042
C           3.6659064    -0.8772199    -0.0237751
O           3.5808220    -1.0939024     1.3715485
C           4.6800826    -1.8302362     1.8697974
H           4.5308826    -1.9391636     2.9469863
H           5.6326934    -1.3084201     1.6897050
H           4.7406398    -2.8307895     1.4114172
H           4.5782261    -0.3288020    -0.2907248
H           3.6805070    -1.8388318    -0.5691956
O           2.7312608     1.0557540    -1.0668011
C           0.8997342    -1.6473033     0.5061618
H          -0.0845909    -1.9710671     0.1470558
H           0.8679043    -1.5747936     1.6010811
H           1.6269970    -2.4118073     0.2337199
19
159_C5H11NO2_1-0-5-6 (165,) energy =    -402.3382486
N           1.1703653    -0.3620463    -0.0315427
C           0.0776810     0.5987194    -0.0914728
H          -0.7461307     0.2103662    -0.7040324
H           0.4526062     1.5203747    -0.5342537
H          -0.3072846     0.7997416     0.9177166
C           2.4292477     0.0529012    -0.3831508
C           3.6169282    -0.8343127     0.0077334
O           3.5900180    -1.1069071     1.3966122
C           4.7279340    -1.8291849     1.8245882
H           4.6232723    -1.9834189     2.9014779
H           5.6576352    -1.2726408     1.6294913
H           4.7995067    -2.8093657     1.3255586
H           4.5149154    -0.2684945    -0.2705390
H           3.6159797    -1.7734011    -0.5758577
O           2.6394957     1.1072283    -0.9754336
C           0.8527798    -1.6271600     0.6124993
H          -0.0419282    -2.0527828     0.1409291
H           0.6498474    -1.4940187     1.6836662
H           1.6704276    -2.3375377     0.5108049
19
159_C5H11NO2_1-0-5-6 (180,) energy =    -402.3393749
N           1.1853396    -0.2828725     0.1408084
C           0.0712595     0.6117231    -0.1374818
H          -0.6086943     0.1693585    -0.8788831
H           0.4679666     1.5475242    -0.5284427
H          -0.4972727     0.8009480     0.7817165
C           2.4428030     0.0924893    -0.2514343
C           3.6148328    -0.8529923     0.0435512
O           3.6892887    -1.1741922     1.4223386
C           4.8493802    -1.9216598     1.7359361
H           4.8252710    -2.1130943     2.8115670
H           5.7662221    -1.3645833     1.4894392
H           4.8720599    -2.8835334     1.1987754
H           4.5135330    -0.3161479    -0.2842344
H           3.5263166    -1.7711504    -0.5653487
O           2.6677925     1.1423435    -0.8476495
C           0.8282885    -1.5727012     0.7102222
H           0.2486302    -2.1703623    -0.0083706
H           0.2071525    -1.4228208     1.6024773
H           1.7178393    -2.1190884     1.0142267
