19
159_C5H11NO2_5-6-7-8 (-165,) energy =    -402.3392228
N           1.1262178    -0.8108409     0.2407220
C           0.9671997    -0.4281566     1.6348592
H           0.5232115     0.5739195     1.6961504
H           1.9299731    -0.3946193     2.1392542
H           0.2965813    -1.1271807     2.1551857
C           2.2752185    -1.2952424    -0.3252645
C           3.5393711    -1.3762040     0.5412938
O           3.8693810    -0.1130479     1.0963776
C           5.1881144    -0.0762988     1.6087373
H           5.3521457     0.9328109     1.9948512
H           5.9299228    -0.2875596     0.8236601
H           5.3300586    -0.8013079     2.4261982
H           4.3291937    -1.7251339    -0.1347829
H           3.4140121    -2.1318545     1.3374813
O           2.3287267    -1.6944407    -1.4855331
C          -0.0814673    -0.7499208    -0.5693742
H          -0.4873582     0.2698148    -0.5681218
H          -0.8495124    -1.4269962    -0.1707779
H           0.1691265    -1.0470206    -1.5866954
19
159_C5H11NO2_5-6-7-8 (-150,) energy =    -402.3383284
N           1.1236285    -0.8114436     0.2547238
C           0.9104445    -0.4558107     1.6489643
H           0.4779819     0.5510777     1.7123168
H           1.8503484    -0.4467367     2.1963512
H           0.2085588    -1.1553804     2.1256286
C           2.2871505    -1.3088931    -0.2681715
C           3.5066749    -1.4315926     0.6566227
O           3.8339605    -0.1840975     1.2538356
C           5.2152398    -0.0451034     1.5305615
H           5.3534315     0.9503273     1.9602795
H           5.8187005    -0.1294196     0.6145352
H           5.5689523    -0.7975017     2.2531104
H           4.3169342    -1.7795764     0.0065899
H           3.3359600    -2.2000115     1.4302469
O           2.3883344    -1.6825501    -1.4339261
C          -0.0446041    -0.7085731    -0.6070047
H          -0.4315724     0.3184491    -0.5999226
H          -0.8423525    -1.3797363    -0.2599669
H           0.2468046    -0.9871056    -1.6187463
19
159_C5H11NO2_5-6-7-8 (-135,) energy =    -402.3372764
N           1.1371626    -0.8315845     0.2755969
C           0.8843171    -0.4856827     1.6655940
H           0.4981776     0.5400471     1.7292244
H           1.7981757    -0.5311356     2.2537564
H           0.1305240    -1.1578110     2.1002732
C           2.3101314    -1.3387010    -0.2158125
C           3.4902389    -1.5089780     0.7531073
O           3.8214123    -0.2881311     1.4064971
C           5.2109462    -0.0182389     1.4477220
H           5.3282454     0.9519625     1.9375589
H           5.6421299     0.0356065     0.4374190
H           5.7621187    -0.7761891     2.0256418
H           4.3167624    -1.8608991     0.1283999
H           3.2704274    -2.2897694     1.4993497
O           2.4486049    -1.6842679    -1.3867362
C           0.0072998    -0.6742114    -0.6278323
H          -0.3476165     0.3643994    -0.6148956
H          -0.8239412    -1.3259065    -0.3254004
H           0.3292452    -0.9423450    -1.6331605
19
159_C5H11NO2_5-6-7-8 (-120,) energy =    -402.3368925
N           1.1681923    -0.8819146     0.2930842
C           0.8765752    -0.5370960     1.6755137
H           0.5221864     0.5004140     1.7335351
H           1.7647118    -0.6170139     2.2980693
H           0.0853319    -1.1867500     2.0768122
C           2.3394244    -1.4282134    -0.1597552
C           3.4806881    -1.6382399     0.8493497
O           3.8270811    -0.4473890     1.5493987
C           5.1705236    -0.0357049     1.3673002
H           5.2929879     0.8920529     1.9324397
H           5.3979107     0.1582526     0.3091020
H           5.8834811    -0.7813008     1.7506849
H           4.3194892    -2.0173268     0.2590475
H           3.2012973    -2.4136612     1.5790075
O           2.5045649    -1.7774559    -1.3264427
C           0.0735966    -0.6905001    -0.6464671
H          -0.2444257     0.3601542    -0.6512137
H          -0.7895644    -1.3098083    -0.3662189
H           0.4170163    -0.9772631    -1.6394776
19
159_C5H11NO2_5-6-7-8 (-105,) energy =    -402.3375960
N           1.1961782    -0.8615102     0.3052500
C           0.8666073    -0.5529380     1.6884445
H           0.5072861     0.4818476     1.7599948
H           1.7390915    -0.6445692     2.3308448
H           0.0664211    -1.2130239     2.0537928
C           2.3578197    -1.4473765    -0.1236617
C           3.4643853    -1.7163251     0.9118694
O           3.8332966    -0.5753055     1.6773288
C           5.0761759    -0.0061959     1.3017432
H           5.2362946     0.8558865     1.9545617
H           5.0737666     0.3337391     0.2559412
H           5.9046160    -0.7169571     1.4394972
H           4.3103567    -2.1169854     0.3454770
H           3.1277682    -2.4920280     1.6140649
O           2.5410066    -1.7848305    -1.2916167
C           0.1310531    -0.6313460    -0.6596326
H          -0.1899638     0.4175128    -0.6252665
H          -0.7388820    -1.2650028    -0.4374467
H           0.5067323    -0.8719335    -1.6532004
19
159_C5H11NO2_5-6-7-8 (-90,) energy =    -402.3390758
N           1.2612505    -0.8424912     0.3202087
C           0.8951236    -0.5465180     1.6977023
H           0.5119108     0.4798477     1.7606961
H           1.7580870    -0.6192231     2.3552505
H           0.1014515    -1.2232683     2.0472316
C           2.4058159    -1.4843458    -0.0754216
C           3.4752274    -1.7974169     0.9889459
O           3.8775662    -0.6902057     1.7808893
C           4.9740985     0.0264237     1.2373903
H           5.2019243     0.8323688     1.9396363
H           4.7366803     0.4627846     0.2561296
H           5.8590735    -0.6181332     1.1298940
H           4.3196311    -2.2345536     0.4450796
H           3.0859722    -2.5546109     1.6822643
O           2.6036453    -1.8343056    -1.2372905
C           0.2272044    -0.5867195    -0.6722380
H          -0.0744253     0.4676823    -0.6385146
H          -0.6606130    -1.2052409    -0.4794115
H           0.6250740    -0.8283287    -1.6568418
19
159_C5H11NO2_5-6-7-8 (-75,) energy =    -402.3403566
N           1.3192643    -0.8229509     0.3380389
C           0.9287735    -0.5423027     1.7126083
H           0.5452147     0.4834722     1.7782255
H           1.7828076    -0.6221931     2.3813812
H           0.1290223    -1.2213466     2.0436585
C           2.4462286    -1.5082942    -0.0369410
C           3.4786010    -1.8705425     1.0502920
O           3.9257268    -0.7903098     1.8514225
C           4.8375190     0.0628516     1.1778947
H           5.1406471     0.8287834     1.8960056
H           4.3790183     0.5495341     0.3048458
H           5.7268713    -0.4910651     0.8423429
H           4.3114036    -2.3464143     0.5180716
H           3.0458867    -2.6034042     1.7420837
O           2.6590848    -1.8521051    -1.1975950
C           0.3154792    -0.5264310    -0.6743439
H           0.0321680     0.5321332    -0.6233872
H          -0.5880467    -1.1328883    -0.5194361
H           0.7340243    -0.7531170    -1.6539221
19
159_C5H11NO2_5-6-7-8 (-60,) energy =    -402.3404091
N           1.3745829    -0.8121112     0.3542178
C           0.9802195    -0.5246311     1.7266676
H           0.6250199     0.5111501     1.7926268
H           1.8278201    -0.6320251     2.4005880
H           0.1594677    -1.1819222     2.0500480
C           2.4800454    -1.5393144    -0.0078477
C           3.4818977    -1.9442345     1.0943289
O           3.9881976    -0.8917749     1.8971217
C           4.6861112     0.0958246     1.1542870
H           5.0692939     0.8187620     1.8785871
H           4.0304282     0.6138362     0.4404631
H           5.5293723    -0.3429837     0.6001458
H           4.2931253    -2.4585896     0.5625460
H           3.0155586    -2.6536556     1.7875064
O           2.6967495    -1.8870855    -1.1658442
C           0.3916812    -0.4807450    -0.6679658
H           0.1462607     0.5873787    -0.6213949
H          -0.5344164    -1.0540363    -0.5206364
H           0.8111390    -0.7241319    -1.6431709
19
159_C5H11NO2_5-6-7-8 (-45,) energy =    -402.3386712
N           1.4224203    -0.8212262     0.3462615
C           1.0324714    -0.5155829     1.7158272
H           0.6943188     0.5262552     1.7733244
H           1.8796181    -0.6313373     2.3903706
H           0.2025680    -1.1566908     2.0479845
C           2.5201245    -1.5683686    -0.0005418
C           3.4804131    -2.0084100     1.1247393
O           4.0767999    -0.9764634     1.8970217
C           4.5806361     0.1093771     1.1337156
H           5.0780580     0.7780291     1.8406055
H           3.7803594     0.6587664     0.6201760
H           5.3106475    -0.2288755     0.3832750
H           4.2512451    -2.5962634     0.6090477
H           2.9658552    -2.6600282     1.8395608
O           2.7563216    -1.9063648    -1.1568005
C           0.4560655    -0.4719366    -0.6854832
H           0.2287947     0.6002557    -0.6420964
H          -0.4812925    -1.0290821    -0.5480839
H           0.8821338    -0.7221702    -1.6561722
19
159_C5H11NO2_5-6-7-8 (-30,) energy =    -402.3355756
N           1.4255299    -0.8514757     0.3640693
C           1.0713089    -0.5214577     1.7371949
H           0.7417097     0.5235311     1.7868637
H           1.9332323    -0.6327888     2.3948606
H           0.2470892    -1.1515203     2.1021829
C           2.5271883    -1.5875518     0.0057576
C           3.4713933    -2.0508065     1.1332509
O           4.1797004    -1.0407957     1.8463413
C           4.4895022     0.1348225     1.1134924
H           5.1080760     0.7483891     1.7733670
H           3.5911722     0.7015526     0.8358193
H           5.0567170    -0.0907845     0.1986538
H           4.1828205    -2.7168886     0.6289989
H           2.9261810    -2.6329299     1.8845256
O           2.7699299    -1.9010121    -1.1556119
C           0.4612085    -0.4727600    -0.6586263
H           0.3040840     0.6132880    -0.6525820
H          -0.5060347    -0.9618474    -0.4793510
H           0.8492930    -0.7834098    -1.6278472
19
159_C5H11NO2_5-6-7-8 (-15,) energy =    -402.3321493
N           1.4531889    -0.8606877     0.3517122
C           1.0820815    -0.5221120     1.7179518
H           0.7448272     0.5208293     1.7547141
H           1.9356333    -0.6205872     2.3888417
H           0.2598172    -1.1548454     2.0826036
C           2.5582496    -1.6006114     0.0101014
C           3.4710229    -2.0740287     1.1562736
O           4.2889193    -1.0877055     1.7884193
C           4.4485329     0.1552430     1.1221712
H           5.2072681     0.7014094     1.6886913
H           3.5243661     0.7483143     1.1066279
H           4.7994510     0.0277429     0.0885369
H           4.1179743    -2.8271926     0.6917460
H           2.8892364    -2.5630470     1.9460264
O           2.8254435    -1.9006747    -1.1494289
C           0.5129835    -0.4670257    -0.6877228
H           0.3587112     0.6192639    -0.6719479
H          -0.4593400    -0.9557641    -0.5374350
H           0.9230388    -0.7666583    -1.6513294
19
159_C5H11NO2_5-6-7-8 (0,) energy =    -402.3294711
N           1.4624382    -0.8797000     0.3499203
C           1.0731235    -0.5377506     1.7097524
H           0.7415092     0.5073687     1.7404579
H           1.9115306    -0.6394161     2.3981286
H           0.2419938    -1.1655270     2.0625057
C           2.5790413    -1.6043259     0.0092849
C           3.4893289    -2.0842453     1.1527580
O           4.4222030    -1.1343930     1.6736918
C           4.4468091     0.1669812     1.1111798
H           5.3150656     0.6627805     1.5533557
H           3.5498329     0.7549858     1.3522473
H           4.5698173     0.1449726     0.0198801
H           4.0585838    -2.9144976     0.7223330
H           2.8997010    -2.4769701     1.9900554
O           2.8610459    -1.8770220    -1.1537961
C           0.5347483    -0.4759539    -0.6975345
H           0.3988688     0.6130549    -0.6897673
H          -0.4461287    -0.9470624    -0.5478450
H           0.9449506    -0.7879420    -1.6569546
19
159_C5H11NO2_5-6-7-8 (15,) energy =    -402.3321499
N           1.4816246    -0.8152793     0.2227373
C           1.2630095     0.4279327     0.9473724
H           0.7189217     1.1614941     0.3348835
H           2.2090996     0.8616540     1.2713609
H           0.6621955     0.2266926     1.8427896
C           2.6816066    -1.1911077    -0.3289545
C           3.8711917    -0.2300941    -0.1498622
O           4.4606768    -0.1552067     1.1492205
C           4.1377617    -1.1817193     2.0742531
H           4.7834591    -1.0158270     2.9405516
H           4.3385566    -2.1827397     1.6672917
H           3.0902851    -1.1418169     2.4018338
H           3.5971704     0.7913653    -0.4379985
H           4.6219383    -0.5953913    -0.8601890
O           2.8264028    -2.2343086    -0.9587243
C           0.3069144    -1.6467647     0.0040101
H          -0.4572891    -1.0945853    -0.5594694
H          -0.1286525    -1.9564770     0.9626725
H           0.6108217    -2.5264476    -0.5618766
19
159_C5H11NO2_5-6-7-8 (30,) energy =    -402.3355760
N           1.4490677    -0.8049613     0.2422679
C           1.2366087     0.4433919     0.9608323
H           0.6983185     1.1765308     0.3425302
H           2.1866830     0.8681152     1.2845624
H           0.6312806     0.2501209     1.8548698
C           2.6448295    -1.1806728    -0.3170170
C           3.8486851    -0.2365321    -0.1251326
O           4.3396071    -0.0678363     1.2018699
C           4.1774935    -1.1793893     2.0698366
H           4.6897142    -0.9152115     2.9984770
H           4.6330674    -2.0911228     1.6566313
H           3.1218932    -1.3859385     2.2896180
H           3.6205244     0.7679111    -0.4986904
H           4.6325846    -0.6711855    -0.7581134
O           2.7805552    -2.2114675    -0.9689225
C           0.2673381    -1.6219389     0.0070523
H          -0.4756201    -1.0682037    -0.5831344
H          -0.1947410    -1.9090289     0.9600745
H           0.5704490    -2.5143594    -0.5390427
19
159_C5H11NO2_5-6-7-8 (45,) energy =    -402.3386709
N           1.4236942    -0.7998382     0.2647012
C           1.1992803     0.4608924     0.9583999
H           0.6582150     1.1763569     0.3217694
H           2.1448147     0.8956920     1.2793212
H           0.5894493     0.2803721     1.8521215
C           2.6180098    -1.1764385    -0.2963355
C           3.8391124    -0.2568188    -0.0830444
O           4.2313859    -0.0146794     1.2603583
C           4.2634070    -1.1740358     2.0791864
H           4.6535730    -0.8554053     3.0489614
H           4.9260080    -1.9460441     1.6603440
H           3.2644851    -1.6086737     2.2180082
H           3.6632693     0.7288441    -0.5278894
H           4.6495082    -0.7495730    -0.6363343
O           2.7460980    -2.1972729    -0.9660498
C           0.2389812    -1.6060465     0.0066054
H          -0.4763743    -1.0568040    -0.6211975
H          -0.2579859    -1.8628498     0.9504032
H           0.5463089    -2.5147413    -0.5093413
19
159_C5H11NO2_5-6-7-8 (60,) energy =    -402.3404124
N           1.3971958    -0.8276475     0.2531390
C           1.1554454     0.4395357     0.9297576
H           0.6141200     1.1408149     0.2775052
H           2.0927911     0.8859230     1.2556617
H           0.5372034     0.2641110     1.8187117
C           2.5919953    -1.1997250    -0.3091194
C           3.8287751    -0.3116794    -0.0557528
O           4.1294031    -0.0266770     1.2994734
C           4.3855788    -1.1876126     2.0745586
H           4.6533282    -0.8420458     3.0760532
H           5.2208350    -1.7699407     1.6574461
H           3.5037646    -1.8400054     2.1422298
H           3.7028326     0.6603485    -0.5463235
H           4.6594772    -0.8412030    -0.5405298
O           2.7129615    -2.2014312    -1.0096373
C           0.2133993    -1.6256577    -0.0349397
H          -0.4654932    -1.0898306    -0.7133026
H          -0.3279448    -1.8417373     0.8941415
H           0.5285272    -2.5549652    -0.5074889
19
159_C5H11NO2_5-6-7-8 (75,) energy =    -402.3403606
N           1.3391387    -0.8138148     0.2344413
C           1.1080459     0.4584668     0.9042596
H           0.5876762     1.1651954     0.2409534
H           2.0452972     0.8922498     1.2451138
H           0.4729969     0.2957408     1.7840496
C           2.5391690    -1.2254365    -0.2859690
C           3.7944348    -0.3768128     0.0029113
O           4.0295697    -0.0741188     1.3672763
C           4.5285900    -1.1787579     2.1044568
H           4.6971006    -0.8259147     3.1249165
H           5.4792316    -1.5401993     1.6848299
H           3.8156205    -2.0157242     2.1265183
H           3.7143096     0.5876127    -0.5132962
H           4.6321724    -0.9340997    -0.4340250
O           2.6510538    -2.2334421    -0.9802827
C           0.1442098    -1.5849737    -0.0786269
H          -0.5076233    -1.0340767    -0.7713326
H          -0.4219437    -1.7877143     0.8388013
H           0.4480487    -2.5216402    -0.5438781
19
159_C5H11NO2_5-6-7-8 (90,) energy =    -402.3390753
N           1.2611603    -0.8044351     0.1969485
C           1.0609612     0.4742309     0.8631184
H           0.5594949     1.1900139     0.1951885
H           2.0060707     0.8889015     1.2052895
H           0.4204671     0.3314883     1.7427772
C           2.4597988    -1.2764062    -0.2709678
C           3.7364027    -0.4731288     0.0441628
O           3.9259133    -0.1618840     1.4163336
C           4.6600029    -1.1474050     2.1241908
H           4.7526005    -0.7916243     3.1535025
H           5.6653021    -1.2802970     1.6976061
H           4.1484883    -2.1210522     2.1264761
H           3.7059197     0.4835460    -0.4936587
H           4.5679842    -1.0633863    -0.3557086
O           2.5533718    -2.3009482    -0.9441434
C           0.0465844    -1.5360945    -0.1331799
H          -0.5858288    -0.9532302    -0.8173905
H          -0.5299754    -1.7403826     0.7778232
H           0.3265402    -2.4725259    -0.6136292
19
159_C5H11NO2_5-6-7-8 (105,) energy =    -402.3375967
N           1.2175928    -0.7952133     0.1638745
C           1.0414513     0.4665794     0.8665503
H           0.5235766     1.1965665     0.2276219
H           1.9961390     0.8748674     1.1891038
H           0.4269466     0.3085563     1.7624509
C           2.4132652    -1.3080920    -0.2649465
C           3.7035443    -0.5524239     0.0997931
O           3.8440716    -0.2791370     1.4889132
C           4.7885624    -1.1062833     2.1473914
H           4.7965052    -0.7993647     3.1965534
H           5.7986323    -0.9782265     1.7304910
H           4.5154465    -2.1698988     2.0888656
H           3.7273368     0.4090184    -0.4326118
H           4.5248134    -1.1683718    -0.2782346
O           2.4935513    -2.3289413    -0.9453686
C          -0.0105843    -1.4862570    -0.2000464
H          -0.6142928    -0.8723982    -0.8828958
H          -0.6087684    -1.6922075     0.6967443
H           0.2519565    -2.4210836    -0.6933612
19
159_C5H11NO2_5-6-7-8 (120,) energy =    -402.3368916
N           1.1704487    -0.8017355     0.1555839
C           1.0284451     0.4567615     0.8711550
H           0.5497903     1.2131805     0.2324761
H           1.9920928     0.8255031     1.2150317
H           0.3933190     0.3114455     1.7547033
C           2.3558221    -1.3588025    -0.2438961
C           3.6616090    -0.6532488     0.1575770
O           3.7624990    -0.4321162     1.5613520
C           4.8798273    -1.0563575     2.1690780
H           4.8206907    -0.8327472     3.2375554
H           5.8312711    -0.6659505     1.7771650
H           4.8625755    -2.1471488     2.0313028
H           3.7442026     0.3128517    -0.3633426
H           4.4628097    -1.3024956    -0.2059302
O           2.4160892    -2.3801785    -0.9249311
C          -0.0742929    -1.4468514    -0.2345688
H          -0.6494545    -0.8018856    -0.9132325
H          -0.6900670    -1.6498604     0.6510295
H           0.1649111    -2.3809125    -0.7410925
19
159_C5H11NO2_5-6-7-8 (135,) energy =    -402.3372753
N           1.1372055    -0.8123725     0.1469937
C           1.0277902     0.4374263     0.8831159
H           0.5969180     1.2252422     0.2483465
H           1.9974900     0.7578386     1.2576321
H           0.3653009     0.3014572     1.7477426
C           2.3093690    -1.4050416    -0.2393843
C           3.6307489    -0.7556848     0.1999196
O           3.7003794    -0.5948759     1.6129019
C           4.9412269    -0.9831177     2.1740807
H           4.8537537    -0.8463303     3.2551132
H           5.7735845    -0.3643002     1.8045808
H           5.1673872    -2.0385620     1.9633236
H           3.7689231     0.2178004    -0.2981130
H           4.4097787    -1.4340018    -0.1609344
O           2.3476336    -2.4153160    -0.9376123
C          -0.1220604    -1.4054473    -0.2774376
H          -0.6614240    -0.7277986    -0.9536320
H          -0.7607008    -1.6029624     0.5930363
H           0.0933864    -2.3378676    -0.7974292
19
159_C5H11NO2_5-6-7-8 (150,) energy =    -402.3383286
N           1.1265439    -0.8232462     0.1386917
C           1.0555438     0.4111547     0.9048295
H           0.6653135     1.2307752     0.2842626
H           2.0324792     0.6811323     1.2994888
H           0.3760611     0.2804741     1.7569982
C           2.2794473    -1.4527504    -0.2472723
C           3.6199686    -0.8748689     0.2286324
O           3.6674404    -0.7668451     1.6448226
C           4.9747541    -0.9036479     2.1700177
H           4.8875638    -0.8377571     3.2575350
H           5.6467297    -0.1053302     1.8171848
H           5.4155465    -1.8753213     1.9018211
H           3.8135066     0.1039124    -0.2433446
H           4.3738760    -1.5812728    -0.1358848
O           2.2870292    -2.4421790    -0.9751636
C          -0.1485392    -1.3524034    -0.3218492
H          -0.6466837    -0.6368202    -0.9905430
H          -0.8102396    -1.5428810     0.5327640
H           0.0367987    -2.2805898    -0.8606153
19
159_C5H11NO2_5-6-7-8 (165,) energy =    -402.3392303
N           1.1189680    -0.8349699     0.1480910
C           1.0923752     0.3834220     0.9422203
H           0.7729217     1.2404844     0.3315669
H           2.0690728     0.5821883     1.3772160
H           0.3761723     0.2712608     1.7662687
C           2.2485803    -1.4985134    -0.2507234
C           3.6080951    -0.9961744     0.2540905
O           3.6490097    -0.9439960     1.6712563
C           4.9677584    -0.8164644     2.1689603
H           4.8966891    -0.7974394     3.2593216
H           5.4474062     0.1135250     1.8239256
H           5.5963284    -1.6664268     1.8628149
H           3.8393819    -0.0066819    -0.1796536
H           4.3410665    -1.7144434    -0.1324567
O           2.2215501    -2.4590510    -1.0156526
C          -0.1713015    -1.2904068    -0.3482986
H          -0.6222041    -0.5358632    -1.0077584
H          -0.8566350    -1.4687910     0.4899757
H          -0.0210096    -2.2130741    -0.9069509
19
159_C5H11NO2_5-6-7-8 (180,) energy =    -402.3392663
N           1.1282235    -0.7626532     0.2604112
C           1.0330612    -0.3801423     1.6606166
H           0.5168602     0.5846139     1.7424883
H           2.0234817    -0.2645603     2.0940816
H           0.4559287    -1.1212273     2.2331447
C           2.2454139    -1.2681008    -0.3504645
C           3.5575889    -1.3194534     0.4433501
O           3.9122846    -0.0474459     0.9582327
C           5.1219288    -0.0859575     1.6920820
H           5.3160273     0.9307532     2.0424877
H           5.9640962    -0.4172921     1.0653076
H           5.0489559    -0.7601577     2.5606518
H           4.3157958    -1.6853803    -0.2599255
H           3.4689684    -2.0573324     1.2617361
O           2.2335906    -1.7105194    -1.4961583
C          -0.1254200    -0.7536091    -0.4797060
H          -0.5751208     0.2464478    -0.4441793
H          -0.8391737    -1.4687510    -0.0471402
H           0.0797541    -1.0323732    -1.5122072
