19
159_C5H11NO2_0-5-6-7 (-165,) energy =    -402.3373836
N           1.1971539    -0.8004423     0.1743008
C           1.0046528     0.5906619    -0.2026855
H           0.8689077     0.6687148    -1.2888489
H           1.8605240     1.2045505     0.0747488
H           0.1101892     1.0123019     0.2795078
C           2.1370630    -1.2513591     1.0745242
C           3.2645958    -0.2702405     1.4750193
O           4.3347636    -0.9076861     2.1131175
C           5.1123524    -1.7280912     1.2570703
H           5.9520891    -2.0904951     1.8551804
H           5.5066511    -1.1512966     0.4036336
H           4.5376507    -2.5834741     0.8852720
H           2.8707762     0.4659517     2.1864527
H           3.6203455     0.2799787     0.5872557
O           2.1306690    -2.3962683     1.5086576
C           0.1187626    -1.6998371    -0.2138849
H          -0.0303399    -1.6520927    -1.2994041
H          -0.8252675    -1.4248044     0.2778564
H           0.3904553    -2.7125387     0.0801650
19
159_C5H11NO2_0-5-6-7 (-150,) energy =    -402.3355150
N           1.2514830    -0.8030851     0.1916133
C           1.0751278     0.5638911    -0.2750695
H           1.0606832     0.5889156    -1.3721068
H           1.8775758     1.2143128     0.0694491
H           0.1225988     0.9806553     0.0840533
C           2.0993560    -1.1935309     1.2060731
C           3.2435827    -0.2332581     1.6116845
O           4.3663004    -0.9194995     2.0964262
C           5.0311756    -1.6974342     1.1172836
H           5.9277470    -2.0984556     1.5962903
H           5.3338519    -1.0820785     0.2534432
H           4.4078534    -2.5299725     0.7689637
H           2.8974483     0.4126669     2.4272697
H           3.5362592     0.4125482     0.7688042
O           2.0210391    -2.2973822     1.7304258
C           0.1921983    -1.7217849    -0.2076676
H           0.0877945    -1.7062379    -1.2989429
H          -0.7725450    -1.4385615     0.2372382
H           0.4550202    -2.7236018     0.1281921
19
159_C5H11NO2_0-5-6-7 (-135,) energy =    -402.3334571
N           1.2885929    -0.8174193     0.2536359
C           1.2086914     0.5072328    -0.3434413
H           1.2811806     0.4319766    -1.4359346
H           2.0066565     1.1590780     0.0064295
H           0.2483488     0.9861465    -0.1023894
C           2.0463128    -1.1752348     1.3488938
C           3.2104976    -0.2606185     1.7987392
O           4.3697417    -1.0032314     2.0888392
C           4.9299190    -1.6506969     0.9626385
H           5.8586248    -2.1164299     1.3012802
H           5.1630628    -0.9339907     0.1573744
H           4.2651084    -2.4305848     0.5674489
H           2.9184400     0.2290535     2.7338492
H           3.4480524     0.5200624     1.0623159
O           1.8801105    -2.2405769     1.9305036
C           0.2284783    -1.7271562    -0.1662010
H           0.2220576    -1.8007323    -1.2601614
H          -0.7575035    -1.3688336     0.1625454
H           0.4141194    -2.7055027     0.2736236
19
159_C5H11NO2_0-5-6-7 (-120,) energy =    -402.3326587
N           1.0172516    -1.0034068     0.0657435
C           0.5312139    -0.8870679     1.4327255
H          -0.1154416    -0.0037804     1.5279006
H           1.3489934    -0.7748716     2.1418313
H          -0.0595723    -1.7694908     1.7127698
C           2.3260074    -0.8866154    -0.3453937
C           3.4486892    -1.1177489     0.6760059
O           4.2084603     0.0686424     0.7610241
C           5.4016089    -0.1082417     1.4940178
H           5.9205520     0.8535790     1.4955909
H           6.0524874    -0.8672996     1.0312558
H           5.2045264    -0.4100683     2.5363325
H           4.0549546    -1.9390191     0.2598102
H           3.1076183    -1.4405730     1.6699107
O           2.6282959    -0.7005381    -1.5172464
C          -0.0227160    -0.9256503    -0.9531092
H          -0.4822913     0.0725183    -0.9773675
H          -0.8046668    -1.6621778    -0.7335037
H           0.4226034    -1.1299034    -1.9254815
19
159_C5H11NO2_0-5-6-7 (-105,) energy =    -402.3342137
N           1.0395236    -1.0280226     0.0323491
C           0.6619184    -0.7821281     1.4178046
H           0.0091974     0.0994311     1.4741382
H           1.5368906    -0.5769310     2.0330250
H           0.1155407    -1.6364754     1.8392526
C           2.3291626    -0.9720423    -0.4416089
C           3.4677521    -1.2112933     0.5600575
O           4.0690999     0.0349894     0.8532609
C           5.2654017    -0.1050007     1.5917600
H           5.6539920     0.9017659     1.7645725
H           6.0157372    -0.6905019     1.0374372
H           5.0928193    -0.5945712     2.5644374
H           4.1789486    -1.8713082     0.0409495
H           3.1446572    -1.7253643     1.4780499
O           2.5890866    -0.8427635    -1.6314843
C          -0.0483180    -0.9423772    -0.9329796
H          -0.4201082     0.0875659    -1.0304678
H          -0.8757425    -1.5813809    -0.6039698
H           0.3160909    -1.2738634    -1.9044576
19
159_C5H11NO2_0-5-6-7 (-90,) energy =    -402.3364851
N           1.0406847    -0.9780695     0.0459547
C           0.7685427    -0.6855727     1.4464394
H           0.1087258     0.1889211     1.5167231
H           1.6877695    -0.4397990     1.9766286
H           0.2687535    -1.5278846     1.9444256
C           2.3012713    -1.0588047    -0.4913755
C           3.4663248    -1.2650707     0.4870940
O           3.9456689     0.0050322     0.8943424
C           5.1430370    -0.0853302     1.6412570
H           5.4326491     0.9348418     1.9053570
H           5.9503639    -0.5484900     1.0530555
H           5.0061129    -0.6707014     2.5650624
H           4.2373069    -1.8055814    -0.0790802
H           3.1837783    -1.8810373     1.3559334
O           2.5110278    -1.0597157    -1.6989451
C          -0.0995475    -0.8936273    -0.8549900
H          -0.4857756     0.1336757    -0.9137801
H          -0.9040495    -1.5460500    -0.4946455
H           0.2183135    -1.2087483    -1.8479986
19
159_C5H11NO2_0-5-6-7 (-75,) energy =    -402.3384136
N           1.0793974    -0.9375856     0.0360618
C           0.8250035    -0.6416881     1.4375420
H           0.2100313     0.2642750     1.5149792
H           1.7565397    -0.4487503     1.9664650
H           0.2806901    -1.4621136     1.9264287
C           2.3199666    -1.1558027    -0.5047663
C           3.4989287    -1.2947297     0.4681553
O           3.8466392    -0.0170015     0.9771768
C           5.0408384    -0.0473813     1.7354737
H           5.2281802     0.9735070     2.0774996
H           5.8941907    -0.3866609     1.1284720
H           4.9515994    -0.7100384     2.6114616
H           4.3236335    -1.7156124    -0.1210075
H           3.2666049    -1.9955260     1.2882019
O           2.5059094    -1.3048675    -1.7082728
C          -0.0749687    -0.8781635    -0.8478539
H          -0.4981622     0.1353182    -0.8701895
H          -0.8531463    -1.5692240    -0.4990184
H           0.2441624    -1.1579173    -1.8509114
19
159_C5H11NO2_0-5-6-7 (-60,) energy =    -402.3393376
N           1.1316101    -0.8696270     0.0399356
C           0.8879099    -0.5845947     1.4452755
H           0.3009673     0.3381656     1.5346101
H           1.8260711    -0.4318853     1.9741674
H           0.3161662    -1.3952715     1.9204424
C           2.3359421    -1.2466735    -0.4927780
C           3.5518730    -1.3132926     0.4411682
O           3.8159004    -0.0480435     1.0246898
C           5.0225178    -0.0403453     1.7643449
H           5.1455739     0.9690611     2.1645411
H           5.8865999    -0.2834498     1.1272726
H           4.9932348    -0.7584180     2.5996726
H           4.3897234    -1.6370477    -0.1884946
H           3.3956641    -2.0780527     1.2232507
O           2.4729105    -1.5647248    -1.6708312
C          -0.0409543    -0.8515414    -0.8222004
H          -0.5234640     0.1334045    -0.7850825
H          -0.7715708    -1.6059778    -0.4990716
H           0.2762729    -1.0694220    -1.8409791
19
159_C5H11NO2_0-5-6-7 (-45,) energy =    -402.3391498
N           1.1563008    -0.8262105     0.0282328
C           0.8955549    -0.5130119     1.4256823
H           0.3808821     0.4533637     1.4971957
H           1.8262700    -0.4399814     1.9823310
H           0.2461080    -1.2761791     1.8794528
C           2.3337797    -1.3155963    -0.4710327
C           3.5888484    -1.3135133     0.4122099
O           3.7764902    -0.0936945     1.1075719
C           5.0099173    -0.0581490     1.8006521
H           5.0721347     0.9154158     2.2930262
H           5.8616874    -0.1690083     1.1122564
H           5.0725023    -0.8523199     2.5618540
H           4.4227131    -1.5083816    -0.2734894
H           3.5359065    -2.1596270     1.1222658
O           2.4318519    -1.7757337    -1.6060955
C          -0.0179786    -0.8497299    -0.8331403
H          -0.5460395     0.1087110    -0.7627385
H          -0.7108429    -1.6493526    -0.5344273
H           0.3036861    -1.0253040    -1.8585770
19
159_C5H11NO2_0-5-6-7 (-30,) energy =    -402.3382822
N           1.1590982    -0.8069567     0.0106829
C           0.8833312    -0.4275283     1.3903757
H           0.4380078     0.5749315     1.4194964
H           1.7991615    -0.4120284     1.9742847
H           0.1665221    -1.1297833     1.8406141
C           2.3193901    -1.3667967    -0.4524376
C           3.6164605    -1.2986161     0.3660600
O           3.7449894    -0.1598604     1.1964017
C           5.0145274    -0.0939174     1.8179611
H           5.0265419     0.8137279     2.4263468
H           5.8243203    -0.0400885     1.0741391
H           5.1957977    -0.9657551     2.4666310
H           4.4195208    -1.3309188    -0.3817106
H           3.6943831    -2.2246166     0.9646537
O           2.3882551    -1.9381470    -1.5388261
C          -0.0153671    -0.8804930    -0.8493546
H          -0.5671134     0.0648402    -0.7905684
H          -0.6863722    -1.6938950    -0.5379130
H           0.3060958    -1.0646272    -1.8732943
19
159_C5H11NO2_0-5-6-7 (-15,) energy =    -402.3372413
N           1.1489858    -0.8170601     0.0250249
C           0.8668202    -0.3285001     1.3698019
H           0.4677492     0.6927897     1.3220852
H           1.7691169    -0.3231072     1.9733556
H           0.1083057    -0.9661849     1.8462775
C           2.3061308    -1.4078687    -0.4035076
C           3.6383949    -1.2710989     0.3493213
O           3.7251205    -0.2538217     1.3277393
C           5.0218644    -0.1623805     1.8863351
H           4.9995139     0.6485546     2.6183970
H           5.7757719     0.0667477     1.1173412
H           5.3131241    -1.0970124     2.3912629
H           4.3832141    -1.1104196    -0.4427968
H           3.8587805    -2.2567219     0.7948845
O           2.3648588    -2.0594663    -1.4451745
C          -0.0260086    -0.9550358    -0.8278912
H          -0.5917384    -0.0164197    -0.8144404
H          -0.6831219    -1.7617866    -0.4730994
H           0.2946224    -1.1861602    -1.8424451
19
159_C5H11NO2_0-5-6-7 (0,) energy =    -402.3364381
N           1.0778008    -0.8878910     0.0392706
C           0.8176721    -0.1706162     1.2812127
H           0.4052492     0.8234315     1.0601960
H           1.7269750    -0.0600399     1.8618693
H           0.0716787    -0.7187906     1.8729666
C           2.2683067    -1.3847822    -0.4125153
C           3.6195863    -1.1763051     0.2918586
O           3.6612665    -0.4243178     1.4883478
C           4.9759240    -0.3117936     1.9985285
H           4.9158262     0.2813553     2.9142234
H           5.6435923     0.1941799     1.2837812
H           5.4030855    -1.2989305     2.2350304
H           4.2639449    -0.7145206    -0.4723307
H           4.0138197    -2.1906069     0.4617547
O           2.3565125    -2.0361202    -1.4534883
C          -0.1110006    -1.1418201    -0.7672504
H          -0.6123277    -0.1938304    -1.0006948
H          -0.8172378    -1.7785760    -0.2177417
H           0.1876827    -1.6399944    -1.6877233
19
159_C5H11NO2_0-5-6-7 (15,) energy =    -402.3382148
N           1.4025228    -0.9321064     0.2576111
C           1.1934009     0.2463972     1.0951428
H           0.5173970     0.9554919     0.5948889
H           2.1408416     0.7363504     1.3049326
H           0.7279763    -0.0495247     2.0433395
C           2.5142458    -1.1543051    -0.5179188
C           3.8893209    -0.5505066    -0.1564105
O           4.1151346    -0.0209337     1.1348294
C           4.2888102    -1.0216915     2.1268926
H           4.4996997    -0.5040065     3.0659088
H           5.1363974    -1.6788356     1.8806842
H           3.3883539    -1.6399987     2.2485096
H           4.0758089     0.2716638    -0.8575129
H           4.6101950    -1.3452348    -0.3917935
O           2.4921873    -1.8938418    -1.4983745
C           0.1769103    -1.6193132    -0.1366048
H          -0.4221789    -1.0106324    -0.8290592
H          -0.4219347    -1.8192948     0.7585291
H           0.4336513    -2.5541661    -0.6330356
19
159_C5H11NO2_0-5-6-7 (30,) energy =    -402.3396717
N           1.3905450    -0.9006129     0.2605765
C           1.1699866     0.3280478     1.0167648
H           0.5511946     1.0320067     0.4405185
H           2.1182451     0.7957478     1.2701370
H           0.6365858     0.0961253     1.9466722
C           2.5283335    -1.1864712    -0.4529793
C           3.8562224    -0.4711793    -0.1230160
O           4.0887437    -0.0553766     1.2085383
C           4.3232141    -1.1362581     2.0979129
H           4.5347484    -0.6995371     3.0770643
H           5.1888329    -1.7343610     1.7756973
H           3.4487974    -1.7973974     2.1787391
H           3.9187887     0.4360389    -0.7367190
H           4.6378814    -1.1602636    -0.4688937
O           2.5491990    -2.0256434    -1.3498507
C           0.1772867    -1.6271250    -0.0960880
H          -0.4317863    -1.0624864    -0.8167346
H          -0.4201500    -1.7950579     0.8068133
H           0.4528517    -2.5795562    -0.5468406
19
159_C5H11NO2_0-5-6-7 (45,) energy =    -402.3404964
N           1.3689862    -0.8773995     0.2653276
C           1.1452847     0.3936966     0.9426160
H           0.5953079     1.0932352     0.2954820
H           2.0900868     0.8374607     1.2481789
H           0.5412777     0.2247865     1.8424818
C           2.5417604    -1.2439140    -0.3457728
C           3.8192177    -0.4256906    -0.0617993
O           4.0749391    -0.0894554     1.2895084
C           4.3879767    -1.2154743     2.0941618
H           4.6090752    -0.8355396     3.0946133
H           5.2692280    -1.7486218     1.7070594
H           3.5485408    -1.9227690     2.1549665
H           3.7696699     0.5260522    -0.6046322
H           4.6382984    -1.0202190    -0.4865972
O           2.6182172    -2.2012582    -1.1119094
C           0.1658559    -1.6375792    -0.0471866
H          -0.4721590    -1.0948498    -0.7594298
H          -0.4097974    -1.8100513     0.8697320
H           0.4582601    -2.5883323    -0.4906507
19
159_C5H11NO2_0-5-6-7 (60,) energy =    -402.3404650
N           1.3347157    -0.8119184     0.1957371
C           1.1106878     0.4728552     0.8428508
H           0.6205432     1.1827387     0.1604784
H           2.0476226     0.8926611     1.2032986
H           0.4522237     0.3324089     1.7091975
C           2.5468652    -1.2610760    -0.2612535
C           3.7846999    -0.3731937    -0.0181903
O           4.0737763    -0.1055255     1.3436555
C           4.4696057    -1.2599843     2.0678634
H           4.7031231    -0.9280013     3.0824527
H           5.3632175    -1.7223352     1.6226610
H           3.6718403    -2.0150842     2.1101147
H           3.6579534     0.6032956    -0.4988798
H           4.6177104    -0.8980326    -0.5034094
O           2.6782666    -2.3234213    -0.8648044
C           0.1427721    -1.6005188    -0.0809704
H          -0.5336230    -1.0576888    -0.7556087
H          -0.3977430    -1.8123263     0.8503403
H           0.4487093    -2.5339856    -0.5514122
19
159_C5H11NO2_0-5-6-7 (75,) energy =    -402.3396309
N           1.2853299    -0.7698356     0.1485978
C           1.0442690     0.5346413     0.7490487
H           0.6549133     1.2540740     0.0142957
H           1.9537109     0.9264959     1.2021463
H           0.2974633     0.4314866     1.5459724
C           2.5267292    -1.2779541    -0.1331318
C           3.7365220    -0.3443486     0.0648042
O           4.0816391    -0.1495059     1.4273981
C           4.5890305    -1.3194514     2.0525255
H           4.8441180    -1.0379691     3.0771867
H           5.4922287    -1.6827205     1.5397170
H           3.8522388    -2.1337042     2.0713872
H           3.5525802     0.6512860    -0.3503567
H           4.5633049    -0.8112679    -0.4868054
O           2.6999885    -2.4204991    -0.5522174
C           0.1090503    -1.5879329    -0.1067695
H          -0.5893932    -1.0539941    -0.7642249
H          -0.4125304    -1.8244422     0.8304300
H           0.4303500    -2.5123360    -0.5850042
19
159_C5H11NO2_0-5-6-7 (90,) energy =    -402.3380945
N           1.2568262    -0.7207252     0.1161668
C           0.9840368     0.6049249     0.6565007
H           0.6618046     1.3061528    -0.1259355
H           1.8589106     1.0058538     1.1671881
H           0.1785017     0.5331755     1.3976772
C           2.5085228    -1.2726347     0.0192488
C           3.7171179    -0.3334008     0.1765356
O           4.1472488    -0.2215794     1.5239881
C           4.7480563    -1.4041598     2.0345297
H           5.0758892    -1.1679749     3.0501175
H           5.6200516    -1.6961496     1.4299017
H           4.0487171    -2.2487349     2.0603678
H           3.5113148     0.6832896    -0.1677033
H           4.5097020    -0.7634257    -0.4519672
O           2.6909326    -2.4643196    -0.2228836
C           0.0952694    -1.5653023    -0.1240815
H          -0.6196932    -1.0381762    -0.7673248
H          -0.4101172    -1.8236467     0.8169748
H           0.4270841    -2.4816149    -0.6105804
19
159_C5H11NO2_0-5-6-7 (105,) energy =    -402.3363923
N           1.2180518    -0.6889157     0.1053506
C           0.8789858     0.6673490     0.5153513
H           0.5672882     1.2818418    -0.3405353
H           1.7150879     1.1515437     1.0175795
H           0.0453275     0.6336298     1.2281490
C           2.4694976    -1.2493325     0.1726020
C           3.6862265    -0.3237460     0.3346163
O           4.2122589    -0.3530230     1.6499417
C           4.9076412    -1.5487678     1.9788603
H           5.3285929    -1.3909051     2.9754897
H           5.7254774    -1.7368648     1.2660428
H           4.2481264    -2.4231539     1.9873004
H           3.4750319     0.7235636     0.1101651
H           4.4298499    -0.6861877    -0.3913017
O           2.6516698    -2.4603929     0.0556887
C           0.0812092    -1.5607961    -0.1622745
H          -0.5903992    -1.0784471    -0.8824044
H          -0.4853418    -1.7681353     0.7562658
H           0.4502573    -2.5013748    -0.5684892
19
159_C5H11NO2_0-5-6-7 (120,) energy =    -402.3352576
N           1.1718115    -0.6638578     0.1482125
C           0.7845407     0.7245525     0.3488826
H           0.4759008     1.1891440    -0.5978788
H           1.5917235     1.3127881     0.7799088
H          -0.0666802     0.7730325     1.0406106
C           2.4151116    -1.2143566     0.3496217
C           3.6313953    -0.2982211     0.5648613
O           4.2524221    -0.5189989     1.8148833
C           5.0585624    -1.6884365     1.8912148
H           5.5678844    -1.6412949     2.8578182
H           5.8125269    -1.6978556     1.0880391
H           4.4631162    -2.6032864     1.8239909
H           3.4036336     0.7677892     0.5266130
H           4.3238014    -0.5205816    -0.2634664
O           2.5972110    -2.4305007     0.3104069
C           0.0637781    -1.5600835    -0.1619562
H          -0.4949342    -1.1746712    -1.0237647
H          -0.6252544    -1.6394902     0.6900340
H           0.4657547    -2.5461240    -0.3881848
19
159_C5H11NO2_0-5-6-7 (135,) energy =    -402.3353148
N           1.1221819    -0.6539654     0.2688365
C           0.8051233     0.7578460     0.1235621
H           0.4364913     0.9605437    -0.8917068
H           1.6734170     1.3910239     0.2935420
H           0.0185848     1.0516678     0.8316577
C           2.3581679    -1.1982785     0.5315465
C           3.5193210    -0.2675250     0.9369402
O           4.2424599    -0.7814835     2.0302824
C           5.2106441    -1.7720394     1.7065272
H           5.7733907    -1.9584075     2.6255121
H           5.9050045    -1.4029993     0.9338724
H           4.7432793    -2.6967511     1.3592263
H           3.1751320     0.7160850     1.2624507
H           4.1685061    -0.1238705     0.0559096
O           2.5513540    -2.4104272     0.4857855
C           0.0265714    -1.5551668    -0.0673084
H          -0.2461799    -1.4634136    -1.1278762
H          -0.8546013    -1.3096009     0.5383115
H           0.3430300    -2.5767426     0.1354986
19
159_C5H11NO2_0-5-6-7 (150,) energy =    -402.3366305
N           1.1078315    -0.7534761     0.1642539
C           0.8293786     0.6605842    -0.0331003
H           0.3029625     0.7953712    -0.9858016
H           1.7456390     1.2487404    -0.0834373
H           0.1919944     1.0681533     0.7650562
C           2.2968018    -1.2752719     0.6158712
C           3.3874949    -0.2797768     1.0694597
O           4.2105191    -0.8105689     2.0745878
C           5.2395120    -1.6757465     1.6110114
H           5.8565804    -1.9113580     2.4823066
H           5.8676214    -1.1700784     0.8588523
H           4.8308960    -2.5961029     1.1859020
H           2.9370857     0.6158431     1.5071307
H           3.9748197     0.0378903     0.1887394
O           2.4919528    -2.4837284     0.6933715
C           0.0227593    -1.6636375    -0.1758910
H          -0.2351873    -1.5813500    -1.2401603
H          -0.8714512    -1.4281137     0.4160466
H           0.3475445    -2.6800731     0.0415027
19
159_C5H11NO2_0-5-6-7 (165,) energy =    -402.3379186
N           1.1196497    -0.7725842     0.1597538
C           0.8892399     0.6381423    -0.1040522
H           0.4810407     0.7584052    -1.1151958
H           1.8141613     1.2123640    -0.0540363
H           0.1683325     1.0727360     0.6041374
C           2.2386054    -1.2911199     0.7681631
C           3.3282487    -0.2856523     1.2045524
O           4.2540336    -0.8416049     2.0954640
C           5.2347142    -1.6704746     1.4862821
H           5.9309398    -1.9559716     2.2791353
H           5.7895172    -1.1176004     0.7099425
H           4.7879633    -2.5678505     1.0490516
H           2.8682427     0.5537440     1.7375142
H           3.8272964     0.1259115     0.3079507
O           2.3770301    -2.4913534     0.9732497
C           0.0279751    -1.6686993    -0.1942049
H          -0.1830292    -1.6121517    -1.2701068
H          -0.8858334    -1.3983456     0.3520647
H           0.3204667    -2.6844357     0.0682159
19
159_C5H11NO2_0-5-6-7 (180,) energy =    -402.3382937
N           1.1595506    -0.7775868     0.1610378
C           0.9469390     0.6245940    -0.1566598
H           0.6714806     0.7263644    -1.2138873
H           1.8471024     1.2151197     0.0102787
H           0.1333227     1.0549362     0.4460851
C           2.1956256    -1.2656401     0.9240036
C           3.2986250    -0.2610868     1.3307242
O           4.3086084    -0.8439962     2.1029850
C           5.1998711    -1.6706088     1.3695600
H           5.9752818    -1.9869579     2.0717961
H           5.6737655    -1.1087414     0.5473405
H           4.6922091    -2.5523224     0.9660632
H           2.8613233     0.5338204     1.9467383
H           3.7175949     0.2145198     0.4257420
O           2.2689940    -2.4423364     1.2558163
C           0.0711900    -1.6740577    -0.2028993
H          -0.1127303    -1.6252697    -1.2835679
H          -0.8559255    -1.3977865     0.3186011
H           0.3529023    -2.6877257     0.0784984
