27
086_C10H15N2+_8-0-19-16 (-165,) energy =    -499.3795939
C           3.7609857     1.9813221    -0.1459810
N           3.7124719     0.9705538    -1.0226929
C           2.6295038     0.1811800    -1.0173407
H           2.6223719    -0.6229849    -1.7498257
C           1.5601743     0.3519625    -0.1393112
H           0.7063734    -0.3166304    -0.1779634
C           1.6200086     1.4003068     0.7786169
H           0.8081303     1.5729446     1.4790180
C           2.7399871     2.2295740     0.7785860
H           2.8097219     3.0639053     1.4720762
N           7.9712630     3.0500915    -0.2099934
H           8.2243762     2.0579518    -0.2945721
H           8.8531807     3.5742104    -0.1975422
C           7.1421017     3.4452728    -1.4262025
H           7.7630037     3.2587936    -2.3060568
H           6.9753388     4.5224560    -1.3331325
C           5.8438319     2.6480409    -1.4428561
H           6.0450107     1.5838256    -1.6073624
H           5.2606101     2.9727559    -2.3103869
C           5.0305290     2.8286352    -0.1480116
H           4.7433550     3.8865164    -0.0549331
C           5.9153195     2.4696692     1.0717155
H           6.1291112     1.3919263     1.0654108
H           5.3876842     2.6730139     2.0092332
C           7.2230805     3.2554056     1.0986838
H           7.8917744     2.9389309     1.9031951
H           7.0563376     4.3333620     1.1801159
27
086_C10H15N2+_8-0-19-16 (-150,) energy =    -499.3808107
C           3.7680847     2.0046591    -0.1129939
N           3.8422749     0.8666418    -0.8175251
C           2.7799743     0.0514817    -0.8113006
H           2.8726889    -0.8568998    -1.4025957
C           1.6109362     0.3197191    -0.0985826
H           0.7785319    -0.3757679    -0.1287625
C           1.5459953     1.4966950     0.6453551
H           0.6557794     1.7453364     1.2156025
C           2.6451173     2.3552961     0.6424957
H           2.6236836     3.2858072     1.2037333
N           7.9735340     3.0117684    -0.2542974
H           8.1829505     2.0201653    -0.4234383
H           8.8753635     3.5006285    -0.2371657
C           7.1162030     3.5312200    -1.4010423
H           7.6965842     3.3979689    -2.3175043
H           6.9916741     4.6020740    -1.2146574
C           5.7905562     2.7810115    -1.4314739
H           5.9446265     1.7277890    -1.6909639
H           5.1883114     3.2054482    -2.2420056
C           5.0274586     2.8641144    -0.0947751
H           4.7401451     3.9079688     0.0927710
C           5.9501863     2.3991092     1.0598744
H           6.1297887     1.3196313     0.9638492
H           5.4606973     2.5465828     2.0282848
C           7.2808792     3.1438277     1.0937087
H           7.9674856     2.7502380     1.8475525
H           7.1527231     4.2176715     1.2580007
27
086_C10H15N2+_8-0-19-16 (-135,) energy =    -499.3819537
C           3.7721830     2.0046990    -0.0546976
N           3.9275845     0.7865400    -0.5965487
C           2.8708153    -0.0339177    -0.6132569
H           3.0307395    -1.0102198    -1.0657428
C           1.6238984     0.3100288    -0.0874976
H           0.7993889    -0.3943046    -0.1274936
C           1.4729914     1.5711329     0.4847283
H           0.5212302     1.8793704     0.9073372
C           2.5680212     2.4365918     0.5053666
H           2.4834286     3.4292208     0.9390696
N           7.9647035     2.9980484    -0.3096348
H           8.1508677     2.0158822    -0.5474190
H           8.8737707     3.4735521    -0.3039217
C           7.0657908     3.5981340    -1.3822727
H           7.6025637     3.5155065    -2.3307552
H           6.9648392     4.6566023    -1.1246357
C           5.7288197     2.8672787    -1.3980375
H           5.8604822     1.8292106    -1.7250987
H           5.0959868     3.3501204    -2.1506040
C           5.0270298     2.8672965    -0.0232014
H           4.7470761     3.8963700     0.2389914
C           5.9955324     2.3273256     1.0569615
H           6.1540743     1.2545606     0.8851859
H           5.5511682     2.4211821     2.0535914
C           7.3349041     3.0558985     1.0745026
H           8.0497156     2.6097567     1.7706834
H           7.2298556     4.1192901     1.3085826
27
086_C10H15N2+_8-0-19-16 (-120,) energy =    -499.3824706
C           3.7875430     1.9875723     0.0175875
N           3.9844829     0.7194196    -0.3777413
C           2.9237644    -0.0936438    -0.4329944
H           3.1189733    -1.1134029    -0.7578039
C           1.6288849     0.3105439    -0.1004499
H           0.8031551    -0.3907100    -0.1630779
C           1.4321211     1.6269360     0.3095321
H           0.4418357     1.9832875     0.5774515
C           2.5320685     2.4849468     0.3708377
H           2.4141009     3.5179449     0.6858967
N           7.9586118     3.0042808    -0.3642760
H           8.1274715     2.0344064    -0.6588563
H           8.8695925     3.4758983    -0.3787622
C           7.0131659     3.6601834    -1.3608294
H           7.5045925     3.6277576    -2.3365642
H           6.9260748     4.7035185    -1.0435514
C           5.6744002     2.9314680    -1.3511228
H           5.7929525     1.9132206    -1.7421474
H           5.0052861     3.4554085    -2.0421211
C           5.0409291     2.8507723     0.0562730
H           4.7658912     3.8635568     0.3800121
C           6.0576716     2.2646434     1.0619596
H           6.2035325     1.2011082     0.8347593
H           5.6599627     2.3144649     2.0812909
C           7.3958645     2.9945127     1.0499666
H           8.1433067     2.5163816     1.6881984
H           7.3041159     4.0454895     1.3394834
27
086_C10H15N2+_8-0-19-16 (-105,) energy =    -499.3820524
C           3.8533118     1.8015773    -0.3174583
N           3.4465789     1.8780022     0.9597482
C           2.2772249     1.3135671     1.2819851
H           1.9757289     1.3996882     2.3237095
C           1.4686267     0.6440762     0.3611692
H           0.5281300     0.2039749     0.6762766
C           1.9022642     0.5588389    -0.9597994
H           1.3055174     0.0457428    -1.7081793
C           3.1197403     1.1463261    -1.3084778
H           3.4849107     1.1029868    -2.3308838
N           7.7153132     3.5510728     0.4762202
H           7.5083992     3.4675532     1.4792682
H           8.6497674     3.9685607     0.4054639
C           7.7163126     2.1599992    -0.1414766
H           8.4905709     1.5828326     0.3704274
H           8.0114634     2.2995942    -1.1855356
C           6.3300238     1.5398812    -0.0046356
H           6.1064653     1.3513182     1.0537043
H           6.3496122     0.5627042    -0.4985761
C           5.2122042     2.4263819    -0.6027167
H           5.3558832     2.4761529    -1.6909121
C           5.2948348     3.8539487    -0.0233440
H           4.9902437     3.8253679     1.0296723
H           4.5851176     4.5143032    -0.5331098
C           6.6818605     4.4699979    -0.1613167
H           6.7651522     5.4385580     0.3381766
H           6.9911631     4.5828681    -1.2046360
27
086_C10H15N2+_8-0-19-16 (-90,) energy =    -499.3809900
C           3.8274030     1.8522400    -0.3004632
N           3.3145615     2.0731403     0.9184920
C           2.1503797     1.4883106     1.2276831
H           1.7593219     1.6982129     2.2208584
C           1.4557012     0.6524132     0.3527507
H           0.5144734     0.2042217     0.6539767
C           2.0021905     0.4135094    -0.9070195
H           1.4954435    -0.2310802    -1.6191909
C           3.2124657     1.0210288    -1.2412876
H           3.6617016     0.8628576    -2.2181949
N           7.7480860     3.5117834     0.4522476
H           7.5856153     3.3737181     1.4574336
H           8.6843652     3.9215671     0.3627835
C           7.7012995     2.1588673    -0.2426935
H           8.4885010     1.5431590     0.1998307
H           7.9512307     2.3542813    -1.2895489
C           6.3125392     1.5489873    -0.0812993
H           6.1366674     1.2979847     0.9737197
H           6.2957316     0.6028210    -0.6321265
C           5.1853266     2.4869508    -0.5763607
H           5.2982185     2.6036563    -1.6636732
C           5.3110899     3.8733448     0.0840060
H           5.0479921     3.7911602     1.1446446
H           4.5887389     4.5704445    -0.3538366
C           6.6993962     4.4785612    -0.0829398
H           6.8201188     5.4151601     0.4672491
H           6.9629634     4.6482820    -1.1311231
27
086_C10H15N2+_8-0-19-16 (-75,) energy =    -499.3797910
C           3.8075832     1.8666490    -0.3005745
N           3.1586554     2.2434036     0.8086916
C           1.9854388     1.6571717     1.0831510
H           1.4834929     1.9962337     1.9866846
C           1.4153311     0.6690171     0.2814442
H           0.4614918     0.2269584     0.5502818
C           2.1006159     0.2728796    -0.8667505
H           1.6922545    -0.4908160    -1.5221254
C           3.3196726     0.8795561    -1.1641024
H           3.8714588     0.6029036    -2.0590126
N           7.7726372     3.4805292     0.4130098
H           7.6698252     3.2810573     1.4156544
H           8.7015959     3.8995884     0.2945640
C           7.6888021     2.1718988    -0.3590508
H           8.4966076     1.5323304     0.0055527
H           7.8856387     2.4302933    -1.4035320
C           6.3085879     1.5501099    -0.1678821
H           6.1863620     1.2311620     0.8765334
H           6.2661553     0.6401656    -0.7750719
C           5.1637167     2.5189933    -0.5516128
H           5.2509722     2.7201526    -1.6300202
C           5.3174113     3.8506520     0.2041500
H           5.1156434     3.6960296     1.2698747
H           4.5670748     4.5716927    -0.1355353
C           6.6927639     4.4741983     0.0012436
H           6.8422130     5.3724425     0.6056067
H           6.8972243     4.7149083    -1.0461807
27
086_C10H15N2+_8-0-19-16 (-60,) energy =    -499.3787294
C           3.7961591     1.8690950    -0.2792452
N           3.0300316     2.4008645     0.6807936
C           1.8410563     1.8344510     0.9292143
H           1.2463932     2.3006119     1.7117097
C           1.3668839     0.7157884     0.2464007
H           0.3959056     0.2955605     0.4874079
C           2.1708434     0.1612171    -0.7493261
H           1.8402267    -0.7076405    -1.3108388
C           3.4075415     0.7444336    -1.0173600
H           4.0452431     0.3418522    -1.8000947
N           7.7966465     3.4595992     0.3757663
H           7.7570568     3.1916840     1.3668161
H           8.7123912     3.8991517     0.2312355
C           7.6804454     2.2052593    -0.4773617
H           8.5117329     1.5516422    -0.2013423
H           7.8176762     2.5355166    -1.5110476
C           6.3176213     1.5546542    -0.2570635
H           6.2538181     1.1646002     0.7683829
H           6.2586065     0.6858121    -0.9197504
C           5.1500445     2.5354604    -0.5176577
H           5.2006676     2.8262434    -1.5791700
C           5.3284075     3.8058951     0.3315312
H           5.1952292     3.5700867     1.3938543
H           4.5487766     4.5362364     0.0976301
C           6.6828714     4.4632627     0.0981723
H           6.8566852     5.3180164     0.7566273
H           6.8236931     4.7814419    -0.9389619
27
086_C10H15N2+_8-0-19-16 (-45,) energy =    -499.3777286
C           3.8018944     1.8688373    -0.2824019
N           2.9393837     2.5342435     0.4965271
C           1.7328550     1.9958996     0.7155936
H           1.0640852     2.5726587     1.3507077
C           1.3294506     0.7737396     0.1801021
H           0.3403167     0.3797306     0.3894734
C           2.2306195     0.0813955    -0.6270782
H           1.9599249    -0.8730513    -1.0689752
C           3.4886869     0.6337530    -0.8628464
H           4.1960175     0.1138820    -1.5022158
N           7.8268519     3.4432243     0.3471848
H           7.8392294     3.1002314     1.3154764
H           8.7285157     3.9082092     0.1937263
C           7.6872038     2.2564252    -0.5939041
H           8.5366205     1.5955046    -0.4040422
H           7.7768926     2.6665384    -1.6039059
C           6.3433250     1.5676911    -0.3713744
H           6.3275343     1.0940422     0.6201253
H           6.2787828     0.7550621    -1.1008854
C           5.1554556     2.5462894    -0.5076189
H           5.1677645     2.9290123    -1.5417218
C           5.3541105     3.7477373     0.4347416
H           5.2761695     3.4239245     1.4806251
H           4.5514164     4.4758861     0.2972195
C           6.6868426     4.4454844     0.1995895
H           6.8767189     5.2475375     0.9171975
H           6.7767900     4.8483333    -0.8134542
27
086_C10H15N2+_8-0-19-16 (-30,) energy =    -499.3771918
C           3.8026393     1.8690318    -0.2704800
N           2.8646365     2.6396806     0.2988200
C           1.6448086     2.1253221     0.4904837
H           0.9165360     2.7870465     0.9543477
C           1.2959636     0.8235125     0.1304518
H           0.2916848     0.4531376     0.3083540
C           2.2719099     0.0233787    -0.4582576
H           2.0483804    -0.9969170    -0.7558640
C           3.5474377     0.5508387    -0.6636998
H           4.3124152    -0.0625331    -1.1285110
N           7.8460667     3.4258149     0.3233491
H           7.9040412     3.0087589     1.2603699
H           8.7351138     3.9142662     0.1690151
C           7.6796924     2.3144219    -0.7016717
H           8.5435730     1.6529999    -0.5991170
H           7.7233862     2.8037533    -1.6788463
C           6.3542659     1.5885295    -0.4844613
H           6.3840736     1.0318342     0.4625357
H           6.2758007     0.8416691    -1.2803991
C           5.1528053     2.5556010    -0.4962796
H           5.1183294     3.0235863    -1.4941885
C           5.3778037     3.6823297     0.5322570
H           5.3525203     3.2717426     1.5511630
H           4.5552492     4.3989892     0.4830897
C           6.6887489     4.4194126     0.3028580
H           6.8979525     5.1640093     1.0749277
H           6.7311696     4.9033293    -0.6772417
27
086_C10H15N2+_8-0-19-16 (-15,) energy =    -499.3772960
C           3.8077755     1.8782028    -0.2714210
N           2.8174623     2.7114104     0.0848594
C           1.5917062     2.2076954     0.2572444
H           0.8195437     2.9178975     0.5451934
C           1.2861352     0.8559452     0.0861427
H           0.2734595     0.4972182     0.2384024
C           2.3145928    -0.0063821    -0.2811699
H           2.1263502    -1.0662625    -0.4252749
C           3.5994183     0.5100237    -0.4651299
H           4.4076611    -0.1533924    -0.7544440
N           7.8671439     3.4031069     0.2949550
H           7.9698190     2.9185181     1.1948828
H           8.7444479     3.9120789     0.1396374
C           7.6680110     2.3676166    -0.8023367
H           8.5416316     1.7113649    -0.7836693
H           7.6669142     2.9278479    -1.7416167
C           6.3586522     1.6125556    -0.5867093
H           6.4313315     0.9935443     0.3184690
H           6.2522727     0.9214106    -1.4292819
C           5.1554385     2.5678038    -0.4887141
H           5.0844920     3.1128449    -1.4437924
C           5.4081244     3.6143446     0.6175628
H           5.4273561     3.1238967     1.6012651
H           4.5739968     4.3196272     0.6452056
C           6.7022499     4.3833819     0.3993632
H           6.9367563     5.0659996     1.2199532
H           6.7011657     4.9440814    -0.5398054
27
086_C10H15N2+_8-0-19-16 (0,) energy =    -499.3774022
C           3.7996230     1.8871242    -0.2897341
N           2.7771916     2.7428470    -0.1274370
C           1.5504521     2.2408014     0.0373416
H           0.7505209     2.9675232     0.1620421
C           1.2759823     0.8707502     0.0517302
H           0.2598999     0.5148732     0.1871319
C           2.3384145    -0.0122803    -0.1107287
H           2.1747173    -1.0859291    -0.1052817
C           3.6266777     0.5015263    -0.2839872
H           4.4632945    -0.1767492    -0.4164464
N           7.8681642     3.3760048     0.2778664
H           8.0003663     2.8287335     1.1371106
H           8.7381744     3.9006301     0.1339677
C           7.6428757     2.4182793    -0.8845369
H           8.5213249     1.7703414    -0.9369584
H           7.6096605     3.0426844    -1.7817370
C           6.3453195     1.6400371    -0.6807439
H           6.4542707     0.9660502     0.1804639
H           6.2090493     1.0024375    -1.5609318
C           5.1452947     2.5809395    -0.4841867
H           5.0474082     3.1944509    -1.3928881
C           5.4189187     3.5486582     0.6878309
H           5.4653162     2.9923775     1.6349861
H           4.5830959     4.2481015     0.7763581
C           6.7038378     4.3397154     0.4884112
H           6.9615038     4.9638577     1.3477291
H           6.6701954     4.9652437    -0.4081551
27
086_C10H15N2+_8-0-19-16 (15,) energy =    -499.3770081
C           3.8049650     1.8994766    -0.3093776
N           2.7623442     2.7458974    -0.3367932
C           1.5351824     2.2428286    -0.1769035
H           0.7175473     2.9596872    -0.2106072
C           1.2813689     0.8829448     0.0215235
H           0.2638991     0.5256685     0.1421847
C           2.3652853     0.0117822     0.0594040
H           2.2171458    -1.0530844     0.2132748
C           3.6543797     0.5264163    -0.1048500
H           4.5089498    -0.1424882    -0.0828030
N           7.8867617     3.3534184     0.2518883
H           8.0515781     2.7468066     1.0643661
H           8.7486102     3.8936867     0.1170103
C           7.6280542     2.4789733    -0.9686709
H           8.5090720     1.8453041    -1.0972527
H           7.5582946     3.1654651    -1.8170660
C           6.3434842     1.6780300    -0.7724485
H           6.4910881     0.9551220     0.0419775
H           6.1754756     1.0923054    -1.6826538
C           5.1481277     2.5995144    -0.4793040
H           5.0251226     3.2746876    -1.3384571
C           5.4482217     3.4856471     0.7494718
H           5.5170232     2.8686693     1.6567206
H           4.6176409     4.1813036     0.9022145
C           6.7276459     4.2930628     0.5710717
H           7.0114029     4.8518893     1.4664150
H           6.6640889     4.9841205    -0.2741901
27
086_C10H15N2+_8-0-19-16 (30,) energy =    -499.3763635
C           3.7943431     1.9165241    -0.3164751
N           2.7389330     2.7137723    -0.5484169
C           1.5145579     2.1977763    -0.4026987
H           0.6862927     2.8734274    -0.6050075
C           1.2771477     0.8755584    -0.0191255
H           0.2617656     0.5055782     0.0789887
C           2.3744804     0.0567891     0.2306854
H           2.2386067    -0.9772785     0.5337107
C           3.6595095     0.5850093     0.0851291
H           4.5256358    -0.0420178     0.2744823
N           7.8964602     3.3189230     0.2274327
H           8.0818989     2.6551021     0.9891528
H           8.7571046     3.8642872     0.1059410
C           7.5970465     2.5341121    -1.0441817
H           8.4711879     1.9093039    -1.2437575
H           7.5045609     3.2792736    -1.8392004
C           6.3151868     1.7250119    -0.8648786
H           6.4874408     0.9435325    -0.1122587
H           6.1121728     1.2079545    -1.8088020
C           5.1327001     2.6272269    -0.4699413
H           4.9802218     3.3586887    -1.2749274
C           5.4740265     3.4252209     0.8084065
H           5.5641619     2.7485749     1.6699426
H           4.6574980     4.1179593     1.0354521
C           6.7537947     4.2378408     0.6473157
H           7.0682296     4.7323874     1.5698323
H           6.6673639     4.9859808    -0.1456264
27
086_C10H15N2+_8-0-19-16 (45,) energy =    -499.3760564
C           3.7934421     1.9464625    -0.3021816
N           2.7371101     2.6394581    -0.7547893
C           1.5244004     2.0858488    -0.6407167
H           0.6942930     2.6765586    -1.0218864
C           1.3019198     0.8285075    -0.0758296
H           0.2968601     0.4242878    -0.0122584
C           2.4006957     0.1165274     0.3988303
H           2.2750345    -0.8643618     0.8478714
C           3.6708812     0.6843645     0.2877871
H           4.5396864     0.1443870     0.6544297
N           7.9264122     3.2736599     0.1990690
H           8.1292958     2.5526097     0.9019986
H           8.7901984     3.8159633     0.0863765
C           7.5687408     2.5908245    -1.1156503
H           8.4243550     1.9702685    -1.3935816
H           7.4609233     3.3952584    -1.8486011
C           6.2799457     1.7900392    -0.9510530
H           6.4620777     0.9476542    -0.2700543
H           6.0334948     1.3526830    -1.9243670
C           5.1231457     2.6741558    -0.4453079
H           4.9391998     3.4590713    -1.1897838
C           5.5269217     3.3691562     0.8748390
H           5.6387081     2.6292841     1.6798924
H           4.7364555     4.0575070     1.1913017
C           6.8142742     4.1734273     0.7261227
H           7.1682945     4.5955676     1.6700412
H           6.7114428     4.9786608    -0.0066868
27
086_C10H15N2+_8-0-19-16 (60,) energy =    -499.3760352
C           3.7780285     1.9831032    -0.2733271
N           2.7535776     2.5390695    -0.9368543
C           1.5588033     1.9394575    -0.8657608
H           0.7533606     2.4192980    -1.4173405
C           1.3253259     0.7705969    -0.1392867
H           0.3356397     0.3260392    -0.1167982
C           2.3925651     0.1980625     0.5494933
H           2.2574842    -0.7109472     1.1283244
C           3.6425013     0.8139733     0.4833978
H           4.4892272     0.3848630     1.0135580
N           7.9402050     3.2323146     0.1615750
H           8.1558131     2.4591270     0.8025366
H           8.8096806     3.7662395     0.0527127
C           7.5167462     2.6519738    -1.1826008
H           8.3473282     2.0372365    -1.5385524
H           7.3970220     3.5087619    -1.8515779
C           6.2182431     1.8668453    -1.0218435
H           6.4032302     0.9696653    -0.4151821
H           5.9190066     1.5125538    -2.0138633
C           5.0986479     2.7290038    -0.4000349
H           4.8900121     3.5623430    -1.0823609
C           5.5725719     3.3196690     0.9460394
H           5.7085442     2.5249932     1.6926640
H           4.8135819     3.9975619     1.3503870
C           6.8683672     4.1110356     0.7957781
H           7.2693339     4.4615600     1.7501616
H           6.7501116     4.9663879     0.1246978
27
086_C10H15N2+_8-0-19-16 (75,) energy =    -499.3760196
C           3.7639085     2.0072517    -0.2347495
N           2.8179322     2.4216782    -1.0910634
C           1.6362443     1.7935138    -1.0759561
H           0.8948326     2.1593278    -1.7828790
C           1.3385582     0.7330097    -0.2182640
H           0.3615759     0.2614708    -0.2456015
C           2.3259782     0.3033188     0.6653870
H           2.1397531    -0.5191308     1.3498397
C           3.5628578     0.9491513     0.6579921
H           4.3474412     0.6272578     1.3378920
N           7.9542303     3.1954771     0.1062144
H           8.1923687     2.3795449     0.6830353
H           8.8235249     3.7280166    -0.0106323
C           7.4579730     2.7088176    -1.2505367
H           8.2612475     2.1085078    -1.6851602
H           7.3193602     3.6086126    -1.8564277
C           6.1567513     1.9318650    -1.0765714
H           6.3519947     0.9918359    -0.5417373
H           5.7981695     1.6539115    -2.0731401
C           5.0818392     2.7618776    -0.3391560
H           4.8576374     3.6413838    -0.9555973
C           5.6306177     3.2494325     1.0172527
H           5.8038614     2.4060494     1.6994238
H           4.9042813     3.9026411     1.5122615
C           6.9259138     4.0389860     0.8503936
H           7.3790103     4.3231974     1.8034694
H           6.7830048     4.9373715     0.2434137
27
086_C10H15N2+_8-0-19-16 (90,) energy =    -499.3762108
C           3.7541046     2.0169538    -0.1941975
N           2.9146171     2.2712043    -1.2106615
C           1.7488532     1.6171030    -1.2454493
H           1.0946320     1.8539621    -2.0816982
C           1.3613631     0.6829704    -0.2820824
H           0.4004061     0.1842172    -0.3550946
C           2.2395389     0.4149361     0.7642266
H           1.9824675    -0.3055413     1.5352183
C           3.4615354     1.0893717     0.8097249
H           4.1574531     0.8913655     1.6197193
N           7.9593183     3.1873783     0.0397759
H           8.2298932     2.3365889     0.5478349
H           8.8198124     3.7316340    -0.0876917
C           7.3923002     2.7875545    -1.3182479
H           8.1706129     2.2162760    -1.8304979
H           7.2254129     3.7239709    -1.8578996
C           6.1001415     2.0012363    -1.1257137
H           6.3172576     1.0295411    -0.6601824
H           5.6835072     1.7892081    -2.1156635
C           5.0675053     2.7829254    -0.2819706
H           4.8290941     3.7053580    -0.8271693
C           5.6871328     3.1689647     1.0739730
H           5.9055173     2.2780073     1.6781643
H           4.9914376     3.7784070     1.6605901
C           6.9708621     3.9742199     0.8921063
H           7.4733798     4.1954310     1.8370468
H           6.7952914     4.9109739     0.3558416
27
086_C10H15N2+_8-0-19-16 (105,) energy =    -499.3767750
C           3.7594279     2.0171941    -0.1658049
N           3.0292582     2.1065311    -1.2897343
C           1.8752588     1.4358878    -1.3486986
H           1.3106710     1.5387261    -2.2729307
C           1.3919829     0.6433328    -0.3041282
H           0.4451954     0.1223281    -0.4021881
C           2.1571100     0.5455424     0.8536901
H           1.8230181    -0.0601787     1.6909842
C           3.3672928     1.2407536     0.9268195
H           3.9712717     1.1780064     1.8266265
N           7.9705658     3.1716090    -0.0056028
H           8.2554638     2.2862532     0.4305273
H           8.8285394     3.7210335    -0.1276350
C           7.3484115     2.8683129    -1.3651009
H           8.1033238     2.3321379    -1.9456965
H           7.1651515     3.8402941    -1.8316701
C           6.0626466     2.0731425    -1.1744805
H           6.2935939     1.0723635    -0.7829355
H           5.5990287     1.9296654    -2.1553744
C           5.0669735     2.7962545    -0.2396627
H           4.8169155     3.7569415    -0.7105085
C           5.7399483     3.0852205     1.1132321
H           5.9780782     2.1516341     1.6412513
H           5.0732426     3.6535466     1.7708148
C           7.0196244     3.8984558     0.9371718
H           7.5589722     4.0515977     1.8752271
H           6.8279979     4.8710825     0.4754743
27
086_C10H15N2+_8-0-19-16 (120,) energy =    -499.3773232
C           3.7682257     1.9961701    -0.1584849
N           3.1371053     1.9255147    -1.3420770
C           1.9851612     1.2524988    -1.4062692
H           1.5037937     1.2222595    -2.3814274
C           1.4045152     0.6156368    -0.3061616
H           0.4646607     0.0837381    -0.4118699
C           2.0653633     0.6850261     0.9158475
H           1.6536470     0.2042055     1.7983762
C           3.2719733     1.3861846     0.9953306
H           3.7946768     1.4527390     1.9440242
N           7.9765546     3.1657449    -0.0402559
H           8.2750663     2.2520743     0.3221558
H           8.8297104     3.7258472    -0.1464024
C           7.3148595     2.9582634    -1.3996725
H           8.0540584     2.4690581    -2.0389484
H           7.1153750     3.9605313    -1.7893139
C           6.0403281     2.1434122    -1.2275213
H           6.2893143     1.1204179    -0.9113269
H           5.5432613     2.0603735    -2.1982780
C           5.0687368     2.7914404    -0.2167248
H           4.8049975     3.7839862    -0.6114823
C           5.7772357     2.9928125     1.1330949
H           6.0247510     2.0247238     1.5905687
H           5.1315442     3.5184764     1.8448982
C           7.0515554     3.8189625     0.9783471
H           7.6164375     3.9063850     1.9097505
H           6.8459271     4.8216832     0.5933829
27
086_C10H15N2+_8-0-19-16 (135,) energy =    -499.3773751
C           3.7764489     1.9683334    -0.1526663
N           3.2417109     1.7315783    -1.3612413
C           2.0896911     1.0580147    -1.4259419
H           1.6910715     0.8891720    -2.4240094
C           1.4116682     0.5858852    -0.2997365
H           0.4775317     0.0443477    -0.4070467
C           1.9698053     0.8300883     0.9510793
H           1.4801924     0.4817139     1.8557654
C           3.1739828     1.5343061     1.0306509
H           3.6170012     1.7328794     2.0009708
N           7.9832923     3.1534122    -0.0716378
H           8.2881311     2.2144162     0.2123321
H           8.8349096     3.7193359    -0.1571518
C           7.2835777     3.0497991    -1.4240157
H           8.0049152     2.6139113    -2.1197306
H           7.0726976     4.0788077    -1.7289882
C           6.0182603     2.2176254    -1.2791900
H           6.2815398     1.1763949    -1.0442173
H           5.4952022     2.1938476    -2.2385580
C           5.0699526     2.7808672    -0.1990544
H           4.7902312     3.7991557    -0.5131578
C           5.8121435     2.8970925     1.1435344
H           6.0589534     1.9002351     1.5350285
H           5.1897698     3.3847065     1.9012490
C           7.0860495     3.7287830     1.0151151
H           7.6736292     3.7470046     1.9363305
H           6.8738564     4.7575215     0.7106322
27
086_C10H15N2+_8-0-19-16 (150,) energy =    -499.3771715
C           3.7734268     1.9583721    -0.1465374
N           3.3466711     1.5291123    -1.3435329
C           2.2024814     0.8398624    -1.4036660
H           1.8960034     0.5128274    -2.3949115
C           1.4263464     0.5411601    -0.2830790
H           0.5047059    -0.0223244    -0.3854015
C           1.8719088     0.9857204     0.9587239