14
153_C4H8O2_3-2-11-9 (-165,) energy =    -307.6301256
O           1.5240939    -0.1513754    -0.2048574
H           1.8149627     0.6525166     0.2618676
C           2.5305100    -1.0988380     0.0440875
C           2.2435565    -2.4798699    -0.4435896
H           3.0560198    -3.0720025    -0.8581205
H           1.2827664    -2.6252067    -0.9283119
C           2.2390760    -2.1953728     1.0508170
H           1.2740697    -2.1568240     1.5469247
H           3.0500998    -2.6006367     1.6528599
O           4.0077838     0.6641585     0.7763046
H           3.9606209     0.3592146     1.6974179
C           3.9132100    -0.4983237    -0.0561109
H           4.0917421    -0.1345290    -1.0728662
H           4.6882859    -1.2385056     0.1895248
14
153_C4H8O2_3-2-11-9 (-150,) energy =    -307.6297301
O           1.5000544    -0.1610182    -0.3136717
H           1.6972306     0.6280458     0.2207529
C           2.5213207    -1.0778690    -0.0155744
C           2.2537932    -2.4945858    -0.4055767
H           3.0764002    -3.0990927    -0.7793391
H           1.2969353    -2.6873754    -0.8816198
C           2.2396677    -2.1143047     1.0625264
H           1.2724203    -2.0564223     1.5522369
H           3.0528333    -2.4711870     1.6920689
O           4.0531529     0.5403868     0.9141091
H           3.9427629     0.1013252     1.7733858
C           3.9022141    -0.4720116    -0.0852259
H           4.0460816     0.0357386    -1.0437343
H           4.6745849    -1.2500932     0.0134289
14
153_C4H8O2_3-2-11-9 (-135,) energy =    -307.6272898
O           1.4841568    -0.1804695    -0.4237994
H           1.5707636     0.5963322     0.1545430
C           2.5222258    -1.0550192    -0.0607284
C           2.2819539    -2.5006838    -0.3644098
H           3.1215200    -3.1107127    -0.6875800
H           1.3378164    -2.7394735    -0.8452360
C           2.2349715    -2.0343786     1.0724337
H           1.2591396    -1.9611575     1.5428201
H           3.0399452    -2.3435934     1.7374473
O           4.1521155     0.3919091     1.0259113
H           4.0038790    -0.1573944     1.8121415
C           3.9067222    -0.4423406    -0.1059657
H           4.0023929     0.2013157    -0.9851953
H           4.6687248    -1.2349173    -0.1797385
14
153_C4H8O2_3-2-11-9 (-120,) energy =    -307.6234509
O           1.4674818    -0.2229926    -0.5342211
H           1.4361946     0.5477784     0.0566381
C           2.5185330    -1.0412249    -0.0802700
C           2.3138050    -2.5092385    -0.3127976
H           3.1796369    -3.1161856    -0.5648100
H           1.3969094    -2.7939588    -0.8205938
C           2.1994274    -1.9654535     1.0887047
H           1.2054713    -1.8805099     1.5177074
H           2.9767727    -2.2301025     1.8042227
O           4.2779999     0.2235802     1.1064759
H           4.1566597    -0.4297106     1.8120581
C           3.9043303    -0.4062157    -0.1153725
H           3.9196202     0.3734232    -0.8820315
H           4.6533737    -1.1644119    -0.3977955
14
153_C4H8O2_3-2-11-9 (-105,) energy =    -307.6201162
O           1.4658245    -0.2744704    -0.6756664
H           1.2949223     0.4872935    -0.0975255
C           2.4947751    -1.0292748    -0.0745804
C           2.3445031    -2.5130691    -0.2545195
H           3.2453995    -3.1043183    -0.4024624
H           1.4803796    -2.8515267    -0.8183692
C           2.1008978    -1.8946436     1.1022627
H           1.0716609    -1.8165543     1.4407611
H           2.8193063    -2.0724266     1.8992467
O           4.3758329     0.0408098     1.1814433
H           4.5903286    -0.7587618     1.6839282
C           3.8786123    -0.3627740    -0.0899981
H           3.7968129     0.5514119    -0.6845585
H           4.6069755    -1.0152045    -0.5971141
14
153_C4H8O2_3-2-11-9 (-90,) energy =    -307.6196498
O           1.4807906    -0.3296060    -0.7800958
H           1.2322724     0.4499620    -0.2563123
C           2.4729929    -1.0228314    -0.0528595
C           2.3726739    -2.5136663    -0.1840229
H           3.2954142    -3.0876328    -0.2454535
H           1.5555989    -2.8996390    -0.7857777
C           2.0241221    -1.8394214     1.1297555
H           0.9726293    -1.7804933     1.3966383
H           2.7013157    -1.9371037     1.9735268
O           4.4523623    -0.1627538     1.2225222
H           4.8674373    -1.0031813     1.4674802
C           3.8442690    -0.3246464    -0.0548256
H           3.6860453     0.6893201    -0.4360453
H           4.5280113    -0.8268172    -0.7555290
14
153_C4H8O2_3-2-11-9 (-75,) energy =    -307.6214822
O           1.5193018    -0.3791011    -0.8632165
H           1.2228452     0.4202206    -0.3972285
C           2.4703583    -1.0173290    -0.0366756
C           2.4123309    -2.5112869    -0.1164248
H           3.3469272    -3.0693491    -0.0955451
H           1.6399925    -2.9391626    -0.7478048
C           1.9720407    -1.7904389     1.1506041
H           0.9054754    -1.7503415     1.3535447
H           2.6089831    -1.8359882     2.0287101
O           4.5318152    -0.3612223     1.2089477
H           4.9978644    -1.2106218     1.2385089
C           3.8198363    -0.2881505    -0.0213528
H           3.6157622     0.7780963    -0.1739385
H           4.4384617    -0.6201517    -0.8679869
14
153_C4H8O2_3-2-11-9 (-60,) energy =    -307.6241027
O           1.5627025    -0.4323476    -0.9343351
H           1.2299862     0.3801043    -0.5183042
C           2.4779225    -1.0203318    -0.0345654
C           2.4557635    -2.5164719    -0.0513905
H           3.3961943    -3.0563139     0.0455001
H           1.7274996    -2.9864267    -0.7047540
C           1.9373640    -1.7522123     1.1602882
H           0.8617150    -1.7284362     1.3110412
H           2.5374115    -1.7524146     2.0650123
O           4.6047623    -0.5364430     1.1511510
H           5.0491766    -1.3857008     1.0053621
C           3.8009881    -0.2590168     0.0110210
H           3.5737646     0.8129252     0.0728425
H           4.3501978    -0.4184759    -0.9287342
14
153_C4H8O2_3-2-11-9 (-45,) energy =    -307.6258802
O           1.6050578    -0.4677831    -0.9960684
H           1.2292891     0.3420806    -0.6133616
C           2.4837758    -1.0170792    -0.0382444
C           2.4786829    -2.5132194     0.0121033
H           3.4143824    -3.0411010     0.1828098
H           1.7866347    -3.0174733    -0.6549448
C           1.8957753    -1.7039029     1.1620144
H           0.8141366    -1.6899791     1.2633219
H           2.4571889    -1.6657004     2.0905963
O           4.6648885    -0.6859158     1.0777940
H           5.1019888    -1.4883223     0.7548970
C           3.7854853    -0.2312516     0.0575731
H           3.5516658     0.8107265     0.3125181
H           4.2706350    -0.2231156    -0.9300549
14
153_C4H8O2_3-2-11-9 (-30,) energy =    -307.6260285
O           1.6610096    -0.5110613    -1.0515147
H           1.2371106     0.2884602    -0.6992481
C           2.5026073    -1.0223842    -0.0416060
C           2.5019733    -2.5168496     0.0786698
H           3.4278464    -3.0311274     0.3220349
H           1.8456222    -3.0522110    -0.6003598
C           1.8617440    -1.6643400     1.1595211
H           0.7765791    -1.6551275     1.2138031
H           2.3811744    -1.5863416     2.1105007
O           4.7431390    -0.7993497     0.9800782
H           5.1395356    -1.5483515     0.5102206
C           3.7848298    -0.2119905     0.1104429
H           3.5496465     0.7682947     0.5441577
H           4.2011548    -0.0353094    -0.8932309
14
153_C4H8O2_3-2-11-9 (-15,) energy =    -307.6248162
O           1.7121734    -0.5543499    -1.0982737
H           1.2518541     0.2402087    -0.7831329
C           2.5143976    -1.0276900    -0.0391116
C           2.5112962    -2.5183498     0.1406420
H           3.4271646    -3.0134056     0.4493315
H           1.8915406    -3.0822440    -0.5498534
C           1.8165611    -1.6323044     1.1531544
H           0.7299335    -1.6268883     1.1564860
H           2.2878572    -1.5169232     2.1259782
O           4.8278975    -0.8871561     0.8448020
H           5.1559584    -1.5730636     0.2437064
C           3.7851264    -0.2016946     0.1652598
H           3.5675279     0.6842914     0.7736465
H           4.1145174     0.1484985    -0.8253557
14
153_C4H8O2_3-2-11-9 (0,) energy =    -307.6232341
O           1.7768944    -0.6085419    -1.1423985
H           1.2879012     0.1883308    -0.8814862
C           2.5276241    -1.0317682    -0.0244022
C           2.5211289    -2.5158197     0.2126849
H           3.4268218    -2.9807507     0.5891171
H           1.9438507    -3.1115136    -0.4878891
C           1.7632079    -1.5982669     1.1468034
H           0.6782836    -1.6015643     1.0834878
H           2.1689271    -1.4415660     2.1436166
O           4.9177348    -0.9504046     0.6728600
H           5.1552217    -1.5632648    -0.0402024
C           3.7969342    -0.2031223     0.2193907
H           3.6251006     0.5578480     0.9887253
H           4.0227535     0.3172211    -0.7241077
14
153_C4H8O2_3-2-11-9 (15,) energy =    -307.6223058
O           1.8478207    -0.6694381    -1.1720962
H           1.3609284     0.1484814    -0.9820009
C           2.5385972    -1.0369528     0.0043332
C           2.5275185    -2.5115852     0.2900563
H           3.4234112    -2.9477551     0.7205285
H           1.9924699    -3.1361804    -0.4188832
C           1.7104483    -1.5709705     1.1488950
H           0.6315280    -1.5846046     1.0192245
H           2.0504759    -1.3758446     2.1633873
O           4.9875663    -0.9815697     0.4822630
H           5.1258434    -1.5035540    -0.3238955
C           3.8073532    -0.2137414     0.2820908
H           3.7004703     0.3819233     1.1946726
H           3.9262148     0.4815524    -0.5630356
14
153_C4H8O2_3-2-11-9 (30,) energy =    -307.6226892
O           1.9352374    -0.7498690    -1.2056813
H           1.4661662     0.0935141    -1.1000934
C           2.5521193    -1.0517561     0.0317834
C           2.5230728    -2.5116935     0.3736226
H           3.3980964    -2.9283466     0.8625426
H           2.0266116    -3.1636091    -0.3385942
C           1.6567213    -1.5369665     1.1465796
H           0.5881048    -1.5552343     0.9499946
H           1.9312686    -1.3016631     2.1721138
O           5.0287241    -0.9841559     0.2679445
H           5.0734445    -1.3849110    -0.6149594
C           3.8183679    -0.2393778     0.3278883
H           3.7929986     0.1680049     1.3437782
H           3.8374530     0.6099085    -0.3727673
14
153_C4H8O2_3-2-11-9 (45,) energy =    -307.6244773
O           2.0401064    -0.8268931    -1.2307809
H           1.6101717     0.0436126    -1.2088178
C           2.5712646    -1.0718277     0.0600623
C           2.5128598    -2.5149848     0.4526042
H           3.3553439    -2.9220622     1.0032576
H           2.0520868    -3.1902604    -0.2615407
C           1.6093060    -1.5045483     1.1385626
H           0.5545795    -1.5217184     0.8779382
H           1.8219446    -1.2322133     2.1694572
O           5.0376055    -0.9484715     0.0534401
H           4.9820546    -1.2006539    -0.8825897
C           3.8293954    -0.2702501     0.3712135
H           3.8965477    -0.0633111     1.4443878
H           3.7625236     0.6998001    -0.1483004
14
153_C4H8O2_3-2-11-9 (60,) energy =    -307.6269305
O           2.1538445    -0.8978453    -1.2493963
H           1.7487511    -0.0157005    -1.2900920
C           2.6002556    -1.0994647     0.0814169
C           2.5017661    -2.5239778     0.5244281
H           3.3048305    -2.9236448     1.1365762
H           2.0696434    -3.2218115    -0.1857650
C           1.5768702    -1.4743853     1.1218054
H           0.5377895    -1.4881495     0.8045568
H           1.7357608    -1.1638369     2.1515599
O           5.0222380    -0.8659783    -0.1434531
H           4.8405423    -1.0049660    -1.0876812
C           3.8439386    -0.2984403     0.4092739
H           4.0076062    -0.2716004     1.4917318
H           3.7010655     0.7436010     0.0729654
14
153_C4H8O2_3-2-11-9 (75,) energy =    -307.6287154
O           2.2525719    -0.9648802    -1.2642885
H           1.8483104    -0.0846072    -1.3445494
C           2.6315138    -1.1358824     0.0916851
C           2.4758036    -2.5370519     0.5892689
H           3.2377806    -2.9320725     1.2550871
H           2.0558359    -3.2554774    -0.1076660
C           1.5551522    -1.4395496     1.0997684
H           0.5301501    -1.4420506     0.7392871
H           1.6777331    -1.0874880     2.1212333
O           4.9913520    -0.7451107    -0.3066172
H           4.6805197    -0.8338347    -1.2235876
C           3.8602608    -0.3263380     0.4392445
H           4.1165795    -0.4477188     1.4969405
H           3.6468152     0.7460084     0.2738798
14
153_C4H8O2_3-2-11-9 (90,) energy =    -307.6289152
O           2.3450206    -1.0265478    -1.2844681
H           1.9083521    -0.1637658    -1.3841932
C           2.6747253    -1.1795068     0.0856731
C           2.4536032    -2.5530385     0.6363413
H           3.1789238    -2.9454624     1.3436912
H           2.0301853    -3.2883459    -0.0409816
C           1.5562119    -1.4064226     1.0677608
H           0.5428804    -1.3954601     0.6753611
H           1.6573124    -1.0115747     2.0760457
O           4.9681654    -0.5929249    -0.4226264
H           4.5588427    -0.6770120    -1.3013219
C           3.8895877    -0.3576012     0.4649893
H           4.2278762    -0.6089431     1.4757894
H           3.6114795     0.7135406     0.4684678
14
153_C4H8O2_3-2-11-9 (105,) energy =    -307.6273220
O           2.4199838    -1.0903768    -1.3013760
H           1.9415370    -0.2528355    -1.4217800
C           2.7134562    -1.2182557     0.0789179
C           2.4293928    -2.5604758     0.6816216
H           3.1218823    -2.9443691     1.4259101
H           2.0014575    -3.3124094     0.0253112
C           1.5605018    -1.3708302     1.0363341
H           0.5574273    -1.3468352     0.6183530
H           1.6491069    -0.9326701     2.0280523
O           4.9290154    -0.4144953    -0.5058221
H           4.4519201    -0.5442474    -1.3446113
C           3.9211256    -0.3845050     0.4874067
H           4.3459217    -0.7551432     1.4270675
H           3.5916812     0.6567280     0.6652913
14
153_C4H8O2_3-2-11-9 (120,) energy =    -307.6259036
O           1.6903442    -0.1160157     0.7633623
H           1.5959730     0.4989724     0.0166858
C           2.5996927    -1.1082583     0.3383608
C           2.0974811    -2.1849554    -0.5921677
H           2.7876073    -2.5984533    -1.3241569
H           1.0658132    -2.1169596    -0.9268995
C           2.3316335    -2.4790550     0.8764244
H           1.4568170    -2.5937525     1.5095402
H           3.1819132    -3.0972265     1.1568977
O           4.0885647     0.7939442    -0.0128545
H           3.6200724     1.2199943     0.7232974
C           4.0456120    -0.5993142     0.2693189
H           4.6015126    -1.0991227    -0.5295823
H           4.5602079    -0.8108401     1.2208288
14
153_C4H8O2_3-2-11-9 (135,) energy =    -307.6242691
O           1.6670232    -0.1074654     0.6544589
H           1.6515691     0.5211587    -0.0870567
C           2.5924095    -1.1128397     0.3026604
C           2.1127554    -2.2477992    -0.5679144
H           2.8216986    -2.7053623    -1.2549134
H           1.0896274    -2.2032863    -0.9312936
C           2.3148167    -2.4468387     0.9218403
H           1.4268622    -2.5263684     1.5421588
H           3.1617160    -3.0416373     1.2575632
O           4.0852249     0.8233542     0.1871514
H           3.5702101     1.1134423     0.9581639
C           4.0452585    -0.5958355     0.2104195
H           4.5250824    -0.9303305    -0.7147695
H           4.6376468    -0.9864921     1.0540481
14
153_C4H8O2_3-2-11-9 (150,) energy =    -307.6234491
O           1.6395526    -0.0973255     0.5435304
H           1.6972765     0.5419520    -0.1866699
C           2.5843930    -1.1103795     0.2746519
C           2.1361136    -2.2977846    -0.5381403
H           2.8656585    -2.7944176    -1.1749538
H           1.1235460    -2.2792717    -0.9314056
C           2.2967136    -2.4046098     0.9684921
H           1.3906795    -2.4523788     1.5656034
H           3.1360965    -2.9728814     1.3630476
O           4.0963633     0.8153482     0.3899303
H           3.5441081     0.9837557     1.1711946
C           4.0318885    -0.5815346     0.1498241
H           4.4144741    -0.7259693    -0.8666640
H           4.6952607    -1.1354410     0.8342231
14
153_C4H8O2_3-2-11-9 (165,) energy =    -307.6248801
O           1.5132200    -0.1567802     0.0889565
H           1.9683556     0.6858413     0.2732564
C           2.5167177    -1.1370278     0.1815647
C           2.2019956    -2.4249701    -0.5107060
H           2.9989732    -2.9665333    -1.0168691
H           1.2315944    -2.4827796    -0.9945547
C           2.2271498    -2.3574784     1.0153611
H           1.2729957    -2.3814672     1.5337507
H           3.0454516    -2.8508414     1.5370815
O           3.9341166     0.8330689     0.4772825
H           3.9744876     0.8449252     1.4475023
C           3.9192916    -0.5362668     0.0532405
H           4.2097011    -0.4953556    -1.0014102
H           4.6653837    -1.1361805     0.5900387
14
153_C4H8O2_3-2-11-9 (180,) energy =    -307.6283534
O           1.5216466    -0.1578204    -0.0800349
H           1.8914887     0.6649243     0.2892216
C           2.5251582    -1.1220782     0.1153590
C           2.2281259    -2.4605968    -0.4755545
H           3.0354713    -3.0323837    -0.9278888
H           1.2662525    -2.5597359    -0.9694991
C           2.2260706    -2.2801398     1.0392516
H           1.2621441    -2.2695093     1.5391144
H           3.0355743    -2.7313762     1.6099246
O           3.9583777     0.7653290     0.6355247
H           3.9730321     0.6136710     1.5948603
C           3.9123381    -0.5171257    -0.0042616
H           4.1339110    -0.3071899    -1.0556303
H           4.6844680    -1.1955937     0.3830487
