17
235_C7H7NO2_16-0-1-8 (-165,) energy =    -476.1627964
C           0.9408809    -0.4886603    -0.4015873
O           1.6037710     0.5423281     0.2549449
C           5.6503842     1.1301370     0.4149124
H           6.7224713     1.2978210     0.4093394
C           4.8843665     1.3367724     1.5660965
H           5.3504540     1.6711321     2.4887138
C           3.5144232     1.1064659     1.5189656
H           2.8685526     1.2496387     2.3779471
C           2.9709456     0.6800794     0.3015086
N           3.6750254     0.4858010    -0.8059158
C           4.9975119     0.7017339    -0.7374403
H           5.5513884     0.5297598    -1.6581319
C           1.7275375    -1.7320001    -0.7416967
H           1.0142015    -2.5177254    -0.9940276
H           2.3548062    -2.0492733     0.0976231
H           2.3876101    -1.5385056    -1.5901494
O          -0.2346675    -0.3460439    -0.6009384
17
235_C7H7NO2_16-0-1-8 (-150,) energy =    -476.1626150
C           0.9788190    -0.4551243    -0.4896342
O           1.6260742     0.4733445     0.3240109
C           5.6563712     1.1611711     0.3890234
H           6.7237440     1.3540405     0.3604646
C           4.9101837     1.3588338     1.5556338
H           5.3877154     1.7102666     2.4660177
C           3.5460610     1.0971583     1.5409978
H           2.9162190     1.2309559     2.4132687
C           2.9858118     0.6504011     0.3373457
N           3.6709077     0.4619588    -0.7829380
C           4.9897663     0.7086871    -0.7452538
H           5.5268245     0.5415848    -1.6767328
C           1.6983076    -1.7534730    -0.7676478
H           0.9538224    -2.4933434    -1.0658910
H           2.2495236    -2.1030446     0.1105948
H           2.4179452    -1.6097201    -1.5771151
O          -0.1354241    -0.1955588    -0.8518835
17
235_C7H7NO2_16-0-1-8 (-135,) energy =    -476.1618487
C           1.0224737    -0.4516637    -0.5972915
O           1.6561741     0.3649621     0.3482174
C           5.6611586     1.1813587     0.3402845
H           6.7218940     1.4046038     0.2935567
C           4.9262562     1.3692989     1.5164731
H           5.4071067     1.7437746     2.4159252
C           3.5708306     1.0691894     1.5265594
H           2.9516824     1.1946427     2.4076591
C           3.0045682     0.5939837     0.3353824
N           3.6789663     0.4116399    -0.7926229
C           4.9907078     0.6981450    -0.7780814
H           5.5175234     0.5364043    -1.7163083
C           1.6377718    -1.8109746    -0.8205334
H           0.8868545    -2.4600381    -1.2739269
H           1.9925067    -2.2410864     0.1211553
H           2.4944392    -1.7156749    -1.4923463
O           0.0036933    -0.0582948    -1.0909862
17
235_C7H7NO2_16-0-1-8 (-120,) energy =    -476.1610564
C           1.0584257    -0.4641042    -0.5557807
O           1.6961635     0.2326025     0.4898410
C           5.6393470     1.2859635     0.3049611
H           6.6830321     1.5673648     0.2121054
C           4.9470485     1.4341956     1.5129384
H           5.4460737     1.8355881     2.3906826
C           3.6119787     1.0619346     1.5837164
H           3.0267069     1.1551781     2.4915222
C           3.0206845     0.5546065     0.4174681
N           3.6546108     0.4058240    -0.7390138
C           4.9478370     0.7658599    -0.7829801
H           5.4402156     0.6316089    -1.7439718
C           1.5486551    -1.8734582    -0.7590807
H           0.9137712    -2.3707796    -1.4936613
H           1.5187731    -2.4169679     0.1916745
H           2.5833691    -1.8574735    -1.1103824
O           0.1330470     0.0527623    -1.1114767
17
235_C7H7NO2_16-0-1-8 (-105,) energy =    -476.1605085
C           1.1218142    -0.4829103    -0.5585159
O           1.7601645     0.0837729     0.5713924
C           5.6325077     1.3518535     0.2916089
H           6.6591930     1.6822696     0.1742901
C           4.9552655     1.4894803     1.5098143
H           5.4495605     1.9330930     2.3697923
C           3.6413946     1.0556860     1.6135808
H           3.0683980     1.1410062     2.5299078
C           3.0555694     0.4953841     0.4685832
N           3.6764011     0.3525311    -0.6961637
C           4.9482492     0.7776859    -0.7730994
H           5.4290292     0.6487512    -1.7407056
C           1.4671704    -1.9303072    -0.7718294
H           0.8653814    -2.3353331    -1.5866923
H           1.2836341    -2.4946137     0.1489492
H           2.5305017    -2.0142921    -1.0146440
O           0.3188791     0.1625087    -1.1650568
17
235_C7H7NO2_16-0-1-8 (-90,) energy =    -476.1602875
C           1.1873640    -0.5047482    -0.5581278
O           1.8490174    -0.0710111     0.6187102
C           5.6308689     1.4318042     0.2833028
H           6.6368483     1.8162180     0.1517772
C           4.9563600     1.5533531     1.5045299
H           5.4316716     2.0397522     2.3519889
C           3.6681579     1.0517283     1.6265025
H           3.0966378     1.1241418     2.5448783
C           3.1080305     0.4381910     0.4968681
N           3.7278145     0.3054054    -0.6696387
C           4.9716193     0.8020563    -0.7660728
H           5.4519752     0.6824478    -1.7351192
C           1.3585974    -1.9772351    -0.7950413
H           0.7521830    -2.2921815    -1.6455534
H           1.0717454    -2.5351658     0.1027638
H           2.4162460    -2.1809055    -0.9923858
O           0.5119562     0.2573877    -1.1837495
17
235_C7H7NO2_16-0-1-8 (-75,) energy =    -476.1606373
C           1.2710255    -0.5653070    -0.5575406
O           1.9761904    -0.2443160     0.6246285
C           5.6450913     1.5207558     0.2980315
H           6.6256158     1.9672030     0.1697661
C           4.9542793     1.6131704     1.5117612
H           5.3888090     2.1397426     2.3570976
C           3.6985255     1.0318850     1.6276312
H           3.1143453     1.0811263     2.5395514
C           3.1919296     0.3681018     0.5027398
N           3.8290759     0.2591791    -0.6563134
C           5.0365089     0.8372845    -0.7494572
H           5.5329533     0.7377756    -1.7126808
C           1.2427675    -2.0472434    -0.7939383
H           0.5601081    -2.2855255    -1.6108440
H           0.9437669    -2.5698616     0.1204314
H           2.2569882    -2.3771975    -1.0465142
O           0.7168454     0.2817771    -1.1945415
17
235_C7H7NO2_16-0-1-8 (-60,) energy =    -476.1618112
C           1.3523749    -0.6276367    -0.5747207
O           2.1192447    -0.4155882     0.5835526
C           5.6566494     1.6136033     0.3108364
H           6.6069717     2.1248737     0.1972753
C           4.9416443     1.6609611     1.5118690
H           5.3247578     2.2175356     2.3627721
C           3.7251964     0.9957381     1.6059941
H           3.1221730     1.0073587     2.5068972
C           3.2868645     0.2969517     0.4758217
N           3.9485059     0.2281170    -0.6715090
C           5.1134444     0.8883169    -0.7458198
H           5.6327263     0.8216717    -1.6998215
C           1.1034787    -2.0938674    -0.7860551
H           0.3542148    -2.2386284    -1.5654503
H           0.7799588    -2.5621141     0.1489763
H           2.0453734    -2.5701753    -1.0821832
O           0.9072500     0.2813526    -1.2149670
17
235_C7H7NO2_16-0-1-8 (-45,) energy =    -476.1636360
C           1.4246740    -0.6855131    -0.5851564
O           2.2657917    -0.5800200     0.5233907
C           5.6527034     1.7051327     0.3273620
H           6.5674905     2.2814879     0.2348408
C           4.9100330     1.7028551     1.5112875
H           5.2337017     2.2844681     2.3700381
C           3.7405197     0.9532302     1.5768195
H           3.1172653     0.9212623     2.4633986
C           3.3801353     0.2267059     0.4387979
N           4.0701533     0.2027047    -0.6923873
C           5.1865501     0.9429123    -0.7412812
H           5.7321195     0.9129178    -1.6824071
C           0.9694383    -2.1086064    -0.7578939
H           0.1605106    -2.1534046    -1.4880486
H           0.6425801    -2.5223027     0.2012694
H           1.8150558    -2.7140448    -1.1037832
O           1.0730094     0.2662121    -1.2249573
17
235_C7H7NO2_16-0-1-8 (-30,) energy =    -476.1654425
C           1.5039320    -0.7375065    -0.5875485
O           2.4344698    -0.7459435     0.4408823
C           5.6494994     1.7870747     0.3437515
H           6.5230982     2.4275086     0.2769042
C           4.8714222     1.7364844     1.5025965
H           5.1239732     2.3429209     2.3679564
C           3.7576768     0.9026389     1.5335211
H           3.1107051     0.8274579     2.4003394
C           3.4893795     0.1490917     0.3895911
N           4.2148435     0.1692553    -0.7181908
C           5.2754280     0.9878888    -0.7350575
H           5.8534240     0.9937678    -1.6570724
C           0.8730113    -2.0985424    -0.7182408
H           0.0127098    -2.0413970    -1.3859572
H           0.5696894    -2.4749133     0.2635714
H           1.6099424    -2.8003996    -1.1245034
O           1.2236988     0.2477831    -1.2147910
17
235_C7H7NO2_16-0-1-8 (-15,) energy =    -476.1665046
C           1.5604341    -0.7785703    -0.5911281
O           2.5895326    -0.9011682     0.3207220
C           5.6275120     1.8484868     0.3624447
H           6.4577700     2.5468090     0.3307083
C           4.8024599     1.7494600     1.4844570
H           4.9733740     2.3744827     2.3564785
C           3.7489970     0.8393304     1.4693835
H           3.0713601     0.7204848     2.3074958
C           3.5859122     0.0674129     0.3192436
N           4.3572609     0.1324705    -0.7541750
C           5.3599431     1.0206839    -0.7268933
H           5.9792334     1.0625677    -1.6206897
C           0.7842858    -2.0688760    -0.6597768
H          -0.1242512    -1.9158979    -1.2430604
H           0.5367503    -2.4224778     0.3456257
H           1.4014966    -2.8388675    -1.1358089
O           1.3294557     0.2308492    -1.2026605
17
235_C7H7NO2_16-0-1-8 (0,) energy =    -476.1669182
C           1.2843292    -0.3852625    -0.5234087
O           2.5579713    -0.8809746    -0.4057586
C           5.8271150     1.2422509     0.8739468
H           6.7381296     1.7548823     1.1660270
C           4.6286103     1.4369361     1.5632830
H           4.5812614     2.1103827     2.4145237
C           3.4850612     0.7574500     1.1536967
H           2.5348862     0.8871164     1.6535264
C           3.6102470    -0.0921757     0.0503127
N           4.7330818    -0.2959794    -0.6201757
C           5.8233649     0.3646502    -0.2076019
H           6.7324551     0.1775804    -0.7759465
C           0.3745717    -1.4657448    -1.0523069
H          -0.6399030    -1.0754515    -1.1376886
H           0.3894180    -2.3312125    -0.3818319
H           0.7294391    -1.8060777    -2.0304891
O           0.9617594     0.7449920    -0.2523269
17
235_C7H7NO2_16-0-1-8 (15,) energy =    -476.1665046
C           1.5445569    -0.7988469    -0.5821081
O           2.4449166     0.2186443    -0.8262577
C           5.7531730     0.6412416     1.5546062
H           6.6560368     0.7129678     2.1526712
C           4.8023919     1.6636813     1.5467855
H           4.9453106     2.5596459     2.1443709
C           3.6602217     1.5172693     0.7642526
H           2.8843324     2.2734870     0.7209080
C           3.5392486     0.3433040     0.0209855
N           4.4277238    -0.6373353     0.0010571
C           5.5159022    -0.4847564     0.7676251
H           6.2316113    -1.3040386     0.7414761
C           0.6387321    -0.9743582    -1.7740329
H          -0.1757428    -1.6515336    -1.5149469
H           1.2131951    -1.3924067    -2.6081013
H           0.2420123    -0.0084624    -2.1008372
O           1.4998578    -1.4149878     0.4496975
17
235_C7H7NO2_16-0-1-8 (30,) energy =    -476.1654425
C           1.4930656    -0.8008224    -0.5348188
O           2.2961682     0.3235889    -0.6546818
C           5.7699526     0.6240514     1.4911454
H           6.7129072     0.6646844     2.0268550
C           4.8669701     1.6890875     1.5258717
H           5.0891017     2.5871136     2.0956099
C           3.6688709     1.5830317     0.8258759
H           2.9250398     2.3718921     0.8222516
C           3.4454368     0.4039545     0.1129616
N           4.2873189    -0.6166472     0.0538695
C           5.4296354    -0.5027355     0.7448265
H           6.1036131    -1.3552179     0.6877891
C           0.7294489    -1.0231819    -1.8134923
H          -0.0389395    -1.7805660    -1.6548159
H           1.4221039    -1.3575547    -2.5939692
H           0.2776860    -0.0872604    -2.1563855
O           1.3987382    -1.4384099     0.4787609
17
235_C7H7NO2_16-0-1-8 (45,) energy =    -476.1636360
C           1.4204895    -0.8063013    -0.4740444
O           2.1393940     0.3897965    -0.4707554
C           5.7655894     0.6067349     1.4094482
H           6.7447518     0.6253114     1.8768632
C           4.9002802     1.7014115     1.4879800
H           5.1905224     2.6002870     2.0248880
C           3.6528836     1.6250234     0.8779309
H           2.9351967     2.4368638     0.9144160
C           3.3409671     0.4421270     0.2024519
N           4.1454235    -0.6063830     0.1036722
C           5.3374553    -0.5194720     0.7104230
H           5.9774562    -1.3951245     0.6215685
C           0.8279109    -1.0521333    -1.8344449
H           0.1055599    -1.8676259    -1.7826998
H           1.6321399    -1.3129064    -2.5319239
H           0.3511759    -0.1419428    -2.2116085
O           1.2532134    -1.4648060     0.5144818
17
235_C7H7NO2_16-0-1-8 (60,) energy =    -476.1618112
C           1.3545584    -0.8029206    -0.4082615
O           2.0067869     0.4362101    -0.2907709
C           5.7608799     0.5892027     1.3181426
H           6.7700388     0.5896876     1.7168961
C           4.9266410     1.7047655     1.4427187
H           5.2735839     2.6019698     1.9479338
C           3.6393579     1.6530448     0.9218026
H           2.9450220     2.4820845     0.9991941
C           3.2527826     0.4698279     0.2828314
N           4.0259076    -0.5986100     0.1428550
C           5.2595601    -0.5329588     0.6646395
H           5.8708615    -1.4249218     0.5424624
C           0.9650546    -1.0651004    -1.8351435
H           0.2956806    -1.9246391    -1.8893719
H           1.8735226    -1.2636354    -2.4156576
H           0.4880779    -0.1794439    -2.2667794
O           1.0901906    -1.4728872     0.5485913
17
235_C7H7NO2_16-0-1-8 (75,) energy =    -476.1606373
C           1.2794498    -0.7937592    -0.3370387
O           1.8805346     0.4641573    -0.1043169
C           5.7403000     0.5736375     1.2272999
H           6.7735143     0.5617441     1.5582411
C           4.9336725     1.7052444     1.3937906
H           5.3285695     2.6020759     1.8632984
C           3.6147436     1.6722184     0.9606946
H           2.9420761     2.5149176     1.0732380
C           3.1641845     0.4873185     0.3643417
N           3.9098585    -0.5961445     0.1874171
C           5.1781905    -0.5459118     0.6228328
H           5.7642233    -1.4501101     0.4706822
C           1.1087595    -1.0568008    -1.8048575
H           0.4986431    -1.9478554    -1.9595079
H           2.1004789    -1.2016161    -2.2485118
H           0.6520842    -0.1898931    -2.2932445
O           0.8999958    -1.4735609     0.5708829
17
235_C7H7NO2_16-0-1-8 (90,) energy =    -476.1602875
C           1.2038355    -0.8025391    -0.2672355
O           1.7754272     0.4471875     0.0825176
C           5.7177491     0.5559324     1.1406407
H           6.7693762     0.5425570     1.4070406
C           4.9297060     1.6972780     1.3341612
H           5.3600422     2.6000346     1.7590532
C           3.5871556     1.6680854     0.9839107
H           2.9289118     2.5189861     1.1179858
C           3.0900125     0.4734214     0.4436598
N           3.8166531    -0.6197645     0.2450637
C           5.1119619    -0.5701684     0.5953881
H           5.6804665    -1.4822651     0.4251506
C           1.2312191    -1.0439528    -1.7486659
H           0.6913649    -1.9612962    -1.9881221
H           2.2740703    -1.1269668    -2.0721118
H           0.7843534    -0.1927634    -2.2734631
O           0.6937431    -1.4858231     0.5702357
17
235_C7H7NO2_16-0-1-8 (105,) energy =    -476.1605085
C           1.1416603    -0.8097791    -0.2379845
O           1.7106475     0.3929857     0.2467052
C           5.7093173     0.5630185     1.0610013
H           6.7736402     0.5651318     1.2713190
C           4.9207473     1.7013312     1.2708198
H           5.3635462     2.6178986     1.6509715
C           3.5626259     1.6523621     0.9909804
H           2.9046257     2.5012817     1.1380547
C           3.0479010     0.4404972     0.5066347
N           3.7742309    -0.6509941     0.2979106
C           5.0868925    -0.5801373     0.5739037
H           5.6545912    -1.4909134     0.3943476
C           1.3411723    -1.0081308    -1.7146641
H           0.7916329    -1.8910573    -2.0442771
H           2.4083577    -1.1336857    -1.9196936
H           0.9930129    -0.1228348    -2.2577999
O           0.4902266    -1.4901221     0.4981745
17
235_C7H7NO2_16-0-1-8 (120,) energy =    -476.1610564
C           1.0809248    -0.8137284    -0.2120068
O           1.6735353     0.3074014     0.4022533
C           5.7070618     0.5759293     0.9947082
H           6.7798480     0.6033996     1.1542784
C           4.9059780     1.7025977     1.2168387
H           5.3466488     2.6366297     1.5544340
C           3.5376264     1.6195478     1.0007005
H           2.8693620     2.4587809     1.1570951
C           3.0259152     0.3868557     0.5696924
N           3.7635747    -0.6950794     0.3535351
C           5.0862363    -0.5902015     0.5622448
H           5.6640416    -1.4932161     0.3760438
C           1.4266820    -0.9855234    -1.6676416
H           0.8249940    -1.7938708    -2.0854464
H           2.4891102    -1.2203571    -1.7696271
H           1.2292456    -0.0531557    -2.2079568
O           0.2882799    -1.4592044     0.4103674
17
235_C7H7NO2_16-0-1-8 (135,) energy =    -476.1618487
C           1.0514766    -0.8587320    -0.1953347
O           1.6649405     0.1644870     0.5389170
C           5.7127222     0.6116698     0.8881428
H           6.7905649     0.6858777     0.9877912
C           4.8776529     1.7027233     1.1547586
H           5.2948918     2.6558707     1.4676244
C           3.5042012     1.5583347     1.0128846
H           2.8091451     2.3678389     1.2052894
C           3.0236441     0.3041700     0.6109992
N           3.7942549    -0.7455728     0.3567216
C           5.1202856    -0.5817530     0.4900183
H           5.7264138    -1.4588139     0.2724472
C           1.5286335    -1.0357195    -1.6155993
H           0.7637567    -1.5799775    -2.1719018
H           2.4600489    -1.6073463    -1.6169640
H           1.7248427    -0.0680698    -2.0875808
O           0.1456242    -1.4549677     0.3148826
17
235_C7H7NO2_16-0-1-8 (150,) energy =    -476.1626150
C           0.9959873    -0.7566083    -0.1941849
O           1.6502895     0.1389452     0.6501405
C           5.7002609     0.6592314     0.8684469
H           6.7791652     0.7517139     0.9370861
C           4.8562294     1.7396901     1.1460539
H           5.2663444     2.7029477     1.4363660
C           3.4813322     1.5704257     1.0434578
H           2.7776558     2.3701207     1.2454150
C           3.0113460     0.3050056     0.6691925
N           3.7909604    -0.7359904     0.4075986
C           5.1168999    -0.5490620     0.5004716
H           5.7317748    -1.4183813     0.2763716
C           1.5890583    -0.9755128    -1.5656846
H           0.8029011    -1.3664664    -2.2135481
H           2.4061060    -1.6981660    -1.5025546
H           1.9954329    -0.0478871    -1.9800769
O          -0.0340203    -1.2349907     0.1935925
17
235_C7H7NO2_16-0-1-8 (165,) energy =    -476.1627975
C           0.9054389    -0.6293498    -0.2418331
O           1.6061073     0.1093538     0.7040035
C           5.6553304     0.6765328     0.8483410
H           6.7341887     0.7810408     0.8990939
C           4.8054968     1.7502476     1.1314762
H           5.2095946     2.7198604     1.4087065
C           3.4305507     1.5646631     1.0515278
H           2.7212611     2.3577837     1.2597141
C           2.9684602     0.2928236     0.6926836
N           3.7543339    -0.7426252     0.4284361
C           5.0792849    -0.5413904     0.4988986
H           5.7002916    -1.4056712     0.2721215
C           1.5828279    -0.9179014    -1.5603399
H           0.8155342    -1.2434044    -2.2639599
H           2.3308106    -1.7039642    -1.4333138
H           2.0988170    -0.0336017    -1.9477121
O          -0.2225465    -0.9398845     0.0297179
17
235_C7H7NO2_16-0-1-8 (180,) energy =    -476.1622286
C           0.9008615    -0.6018565    -0.2412442
O           1.6405655    -0.0242301     0.7815040
C           5.6703435     0.6986966     0.8135980
H           6.7456760     0.8427843     0.8353265
C           4.7894819     1.7408854     1.1159335
H           5.1647736     2.7256412     1.3799317
C           3.4201407     1.5030243     1.0736129
H           2.6875135     2.2695685     1.2998202
C           2.9966323     0.2146506     0.7298252
N           3.8133039    -0.7922187     0.4482430
C           5.1308533    -0.5418167     0.4834671
H           5.7780626    -1.3830033     0.2433841
C           1.6131874    -0.9535309    -1.5250879
H           0.8594004    -1.2644164    -2.2491620
H           2.3332407    -1.7567638    -1.3537291
H           2.1711704    -0.0952962    -1.9148000
O          -0.2763539    -0.7469404    -0.0500354
