36
124_C17H17NO_8-7-16-18 (-165,) energy =    -788.0349038
C           6.0453511     1.2973857     0.2362376
H           6.8917330     1.8911623    -0.0976256
C           6.1850625     0.3757520     1.2710293
H           7.1388245     0.2401414     1.7732420
C           5.0844583    -0.3888637     1.6385467
H           5.1851055    -1.1340333     2.4228208
C           3.8277661    -0.2502031     1.0181277
C           3.6649041     0.7223473     0.0029765
C           4.8061947     1.4567650    -0.3744593
H           4.7438039     2.1601784    -1.2005232
C          -0.2104598     2.6537575    -0.8772032
H          -0.5981643     2.9562366     0.1054396
H          -0.8810060     3.0962018    -1.6204646
C           1.1442729     3.3291895    -1.0261233
N           2.2550246     2.5388607    -0.8734284
H           3.1079233     3.0744922    -0.9561573
C           2.3532847     1.0688108    -0.7422656
H           2.4440745     0.6354865    -1.7537261
C           1.0230304     0.5743343    -0.1582136
H           0.9361224     0.8911071     0.8877681
H           0.9944637    -0.5153147    -0.1711019
C          -0.1493946     1.1286154    -0.9763978
H          -0.0323915     0.8252358    -2.0265335
H          -1.0904108     0.6873649    -0.6284014
O           1.2539540     4.5342789    -1.2217567
C           0.9589745    -3.1319463     2.4546311
H           0.2503508    -3.8681391     2.8242497
C           1.6001134    -3.3278455     1.2296046
H           1.3969125    -4.2208580     0.6442902
C           2.5100988    -2.3818885     0.7557780
H           3.0148138    -2.5418768    -0.1937186
C           2.7867627    -1.2205810     1.4930758
C           2.1529238    -1.0451431     2.7310473
H           2.3725540    -0.1580479     3.3193976
C           1.2409486    -1.9896550     3.2054683
H           0.7527910    -1.8330204     4.1638247
36
124_C17H17NO_8-7-16-18 (-150,) energy =    -788.0361244
C           5.9543188     1.4119767     0.4217935
H           6.7894112     2.0358764     0.1152257
C           6.0950198     0.4943587     1.4575596
H           7.0390743     0.3869353     1.9843988
C           5.0090944    -0.3087783     1.7902188
H           5.1143963    -1.0646394     2.5636972
C           3.7733086    -0.2105150     1.1268557
C           3.5956345     0.7864701     0.1322659
C           4.7273045     1.5382702    -0.2262403
H           4.6529588     2.2979183    -0.9952125
C          -0.0995027     2.7856813    -0.8732903
H          -0.1146647     3.3127364     0.0911882
H          -0.9102719     3.2028065    -1.4769800
C           1.2017972     3.1277670    -1.5778567
N           2.2574664     2.2723708    -1.3643211
H           3.0365169     2.5020376    -1.9677418
C           2.2916424     0.9706602    -0.6861026
H           2.3153139     0.1969319    -1.4735731
C           0.9834376     0.7421843     0.1001664
H           1.0524662     1.2412855     1.0760092
H           0.8633027    -0.3211459     0.2940736
C          -0.2377452     1.2788332    -0.6512586
H          -0.3361564     0.7683150    -1.6196873
H          -1.1488104     1.0543515    -0.0846189
O           1.3301456     4.1102143    -2.2976336
C           1.0039773    -3.3189757     2.2512008
H           0.3186962    -4.1116824     2.5387845
C           1.5929555    -3.3245346     0.9847937
H           1.3737183    -4.1269491     0.2851983
C           2.4724114    -2.3060852     0.6162550
H           2.9385520    -2.3214887    -0.3658052
C           2.7712859    -1.2592986     1.5028540
C           2.1890577    -1.2757963     2.7783811
H           2.4216095    -0.4773179     3.4780977
C           1.3080196    -2.2934234     3.1478739
H           0.8593093    -2.2843204     4.1377730
36
124_C17H17NO_8-7-16-18 (-135,) energy =    -788.0412963
C           5.8919843     1.5121553     0.5323820
H           6.7040762     2.1811904     0.2610377
C           6.0690411     0.5440224     1.5149663
H           7.0194695     0.4406012     2.0311864
C           5.0137627    -0.3153263     1.8113786
H           5.1525219    -1.1071115     2.5425935
C           3.7745524    -0.2251580     1.1574574
C           3.5638044     0.8155810     0.2153522
C           4.6589004     1.6291010    -0.1095495
H           4.5343302     2.4295125    -0.8297423
C          -0.0662888     2.7996723    -1.0533754
H          -0.0223431     3.5390169    -0.2410599
H          -0.8866739     3.0996002    -1.7111619
C           1.2169715     2.9210091    -1.8602938
N           2.2628285     2.1117087    -1.4761207
H           3.0266391     2.1573049    -2.1405773
C           2.2452363     0.9587573    -0.5726013
H           2.1573666     0.0537015    -1.1971848
C           0.9870951     0.9828870     0.3199972
H           1.1439783     1.6934157     1.1433908
H           0.8481707     0.0000755     0.7669016
C          -0.2555590     1.3956889    -0.4727692
H          -0.4348426     0.6776014    -1.2853905
H          -1.1405485     1.3649413     0.1733289
O           1.3430196     3.7078151    -2.7895090
C           1.0252690    -3.4092095     2.1092801
H           0.3431531    -4.2192215     2.3527216
C           1.5411187    -3.2893492     0.8171894
H           1.2694396    -4.0125332     0.0526646
C           2.4166809    -2.2491402     0.5045963
H           2.8319009    -2.1760119    -0.4971884
C           2.7861135    -1.3039687     1.4751996
C           2.2740077    -1.4459893     2.7740743
H           2.5571503    -0.7253014     3.5367314
C           1.3978434    -2.4859948     3.0877172
H           1.0060848    -2.5739898     4.0977129
36
124_C17H17NO_8-7-16-18 (-120,) energy =    -788.0459651
C           5.8229144     1.5762310     0.6028771
H           6.6081185     2.2916366     0.3737588
C           6.0374580     0.5644817     1.5335005
H           6.9913325     0.4739405     2.0458595
C           5.0174769    -0.3506919     1.7889668
H           5.1859375    -1.1667015     2.4866704
C           3.7775681    -0.2764281     1.1368378
C           3.5383190     0.7896121     0.2329690
C           4.5882707     1.6752884    -0.0404169
H           4.4210395     2.4964139    -0.7291264
C          -0.0480356     2.7758376    -1.1657970
H           0.0392953     3.6508827    -0.5061984
H          -0.8837161     2.9750197    -1.8425143
C           1.2114319     2.7277802    -2.0208690
N           2.2470528     1.9519606    -1.5498521
H           3.0026596     1.8818837    -2.2228931
C           2.2002671     0.9250618    -0.5077291
H           1.9995781    -0.0418333    -0.9945295
C           1.0186330     1.1784092     0.4490830
H           1.2704280     2.0156045     1.1145637
H           0.8794877     0.2966711     1.0767044
C          -0.2569329     1.5091047    -0.3294671
H          -0.5181916     0.6671020    -0.9857435
H          -1.0994638     1.6428582     0.3589653
O           1.3287408     3.3725067    -3.0546010
C           1.0323820    -3.4886255     2.0073892
H           0.3505726    -4.3045469     2.2311555
C           1.5420374    -3.3330014     0.7169220
H           1.2665431    -4.0343466    -0.0663141
C           2.4171473    -2.2852096     0.4289986
H           2.8323818    -2.1897000    -0.5708062
C           2.7947641    -1.3687623     1.4237605
C           2.2867564    -1.5463476     2.7205524
H           2.5755582    -0.8485179     3.5021782
C           1.4108764    -2.5937963     3.0095251
H           1.0245460    -2.7097281     4.0187755
36
124_C17H17NO_8-7-16-18 (-105,) energy =    -788.0489719
C           5.7512343     1.6598290     0.6729560
H           6.5036579     2.4204260     0.4824931
C           6.0120505     0.6124141     1.5525181
H           6.9708671     0.5405355     2.0586753
C           5.0336667    -0.3568361     1.7700027
H           5.2367467    -1.1903658     2.4371364
C           3.7901001    -0.3041190     1.1232892
C           3.5142285     0.7791472     0.2547657
C           4.5134955     1.7346439     0.0332255
H           4.3044173     2.5677970    -0.6302982
C          -0.0047848     2.8111525    -1.2276924
H           0.1550680     3.7683047    -0.7111239
H          -0.8625956     2.9546613    -1.8907972
C           1.2110278     2.5808527    -2.1180644
N           2.2184264     1.8033877    -1.5948654
H           2.9586297     1.6263961    -2.2658118
C           2.1544452     0.9122945    -0.4335184
H           1.8517620    -0.0860363    -0.7789863
C           1.0640266     1.3892652     0.5442685
H           1.4181645     2.2905508     1.0627161
H           0.9143147     0.6149583     1.3017888
C          -0.2370772     1.6962772    -0.2015866
H          -0.5920268     0.7885631    -0.7091959
H          -1.0234998     1.9884266     0.5041468
O           1.3205621     3.0976225    -3.2223915
C           1.0795489    -3.5615275     1.9320450
H           0.4063425    -4.3884244     2.1411581
C           1.6192161    -3.4012918     0.6542627
H           1.3744550    -4.1087276    -0.1336661
C           2.4839650    -2.3399984     0.3856361
H           2.9203346    -2.2368786    -0.6045846
C           2.8224430    -1.4157868     1.3873851
C           2.2815853    -1.5956277     2.6701658
H           2.5411350    -0.8923760     3.4572487
C           1.4158323    -2.6570024     2.9401337
H           1.0051118    -2.7761912     3.9393249
36
124_C17H17NO_8-7-16-18 (-90,) energy =    -788.0502266
C           5.6708823     1.6965286     0.7368310
H           6.3948491     2.4918097     0.5808184
C           5.9749706     0.6170486     1.5645396
H           6.9397088     0.5567717     2.0609379
C           5.0335271    -0.3944132     1.7460478
H           5.2685889    -1.2467015     2.3780029
C           3.7831995    -0.3555045     1.1093926
C           3.4711097     0.7478282     0.2830221
C           4.4278986     1.7562178     0.1083158
H           4.1834831     2.6030032    -0.5263171
C           0.0503071     2.8411569    -1.3272757
H           0.2922765     3.8517666    -0.9686943
H          -0.8261776     2.9437550    -1.9735345
C           1.2101384     2.4048293    -2.2166511
N           2.1739857     1.6199718    -1.6292223
H           2.8894357     1.3201744    -2.2830562
C           2.0925217     0.8951837    -0.3563888
H           1.6887157    -0.1074944    -0.5456676
C           1.1064958     1.6068690     0.5879882
H           1.5622951     2.5386391     0.9486497
H           0.9416530     0.9655593     1.4601524
C          -0.2078870     1.9115042    -0.1357035
H          -0.6589808     0.9721976    -0.4844277
H          -0.9289036     2.3690226     0.5518740
O           1.3161131     2.7762583    -3.3784138
C           1.1265952    -3.6716448     1.8506890
H           0.4658300    -4.5124991     2.0432465
C           1.6649212    -3.4786294     0.5766607
H           1.4302549    -4.1736067    -0.2252782
C           2.5137378    -2.3995999     0.3297142
H           2.9458392    -2.2664850    -0.6589250
C           2.8377092    -1.4907271     1.3502578
C           2.2968739    -1.7015093     2.6279642
H           2.5442952    -1.0097861     3.4290551
C           1.4470890    -2.7811397     2.8759885
H           1.0360866    -2.9252075     3.8717797
36
124_C17H17NO_8-7-16-18 (-75,) energy =    -788.0502477
C           5.5763531     1.7364487     0.8209130
H           6.2776247     2.5558401     0.6880198
C           5.9213887     0.6294786     1.5967397
H           6.8957696     0.5734136     2.0745102
C           5.0111456    -0.4134685     1.7483366
H           5.2808213    -1.2863170     2.3367583
C           3.7476355    -0.3815093     1.1338508
C           3.3948659     0.7474185     0.3618939
C           4.3221232     1.7892354     0.2178672
H           4.0472447     2.6511708    -0.3839846
C           0.0843371     2.8380186    -1.4737435
H           0.4082609     3.8758169    -1.3111201
H          -0.8094811     2.8893352    -2.1022570
C           1.1759825     2.1700753    -2.3047202
N           2.0935785     1.4119809    -1.6182214
H           2.7738912     0.9668115    -2.2246197
C           2.0024345     0.9142519    -0.2382540
H           1.5019358    -0.0610250    -0.2421952
C           1.1310354     1.8700225     0.5954031
H           1.6785275     2.8060741     0.7672910
H           0.9569252     1.4115873     1.5752015
C          -0.1883677     2.1576919    -0.1267954
H          -0.7293639     1.2147174    -0.2862828
H          -0.8365398     2.7897637     0.4915508
O           1.2722788     2.3455999    -3.5126873
C           1.2060657    -3.8069505     1.7687629
H           0.5748626    -4.6758676     1.9339001
C           1.6566950    -3.5003978     0.4829883
H           1.3831556    -4.1343858    -0.3562732
C           2.4674613    -2.3854807     0.2710809
H           2.8305659    -2.1636322    -0.7293186
C           2.8404335    -1.5529434     1.3391769
C           2.3868374    -1.8773967     2.6269740
H           2.6696561    -1.2434434     3.4633027
C           1.5752428    -2.9928773     2.8402614
H           1.2310170    -3.2242021     3.8449081
36
124_C17H17NO_8-7-16-18 (-60,) energy =    -788.0496529
C           5.5209288     1.7311264     0.9632978
H           6.2138042     2.5609441     0.8536208
C           5.8979277     0.5817634     1.6598049
H           6.8887356     0.5039917     2.0992239
C           5.0005808    -0.4752228     1.7775524
H           5.2975375    -1.3817912     2.2977218
C           3.7143229    -0.4161354     1.2110028
C           3.3266834     0.7571556     0.5262768
C           4.2459693     1.8105331     0.4110200
H           3.9525546     2.7039910    -0.1334199
C           0.0750876     2.7466238    -1.5403643
H           0.4554597     3.7759621    -1.6027481
H          -0.8455361     2.7242332    -2.1310760
C           1.0915336     1.8693016    -2.2660176
N           1.9792347     1.1772656    -1.4793794
H           2.6189821     0.5984959    -2.0121315
C           1.9178774     0.9516392    -0.0255316
H           1.3379909     0.0428900     0.1723909
C           1.1691879     2.1202676     0.6362053
H           1.7830052     3.0288979     0.5974175
H           1.0163754     1.8788527     1.6941573
C          -0.1656044     2.3623333    -0.0752775
H          -0.7757987     1.4500576    -0.0232407
H          -0.7356807     3.1491390     0.4325276
O           1.1575340     1.8289843    -3.4881506
C           1.2463336    -3.9185672     1.6954059
H           0.6348184    -4.8078528     1.8214577
C           1.5543420    -3.4536437     0.4153335
H           1.1894130    -3.9837180    -0.4603704
C           2.3400867    -2.3128258     0.2536180
H           2.5910016    -1.9697500    -0.7468963
C           2.8301482    -1.6107293     1.3674297
C           2.5177929    -2.0940057     2.6479964
H           2.8872054    -1.5608411     3.5200698
C           1.7319799    -3.2354109     2.8112251
H           1.4973957    -3.5888755     3.8118811
36
124_C17H17NO_8-7-16-18 (-45,) energy =    -788.0482066
C           5.5304340     1.7715932     1.1184467
H           6.2178363     2.6117399     1.0706568
C           5.9215343     0.5697092     1.7089131
H           6.9190584     0.4587702     2.1253729
C           5.0264424    -0.4945724     1.7544522
H           5.3310892    -1.4382748     2.1983513
C           3.7304290    -0.3919890     1.2172255
C           3.3317375     0.8305889     0.6269866
C           4.2468145     1.8927537     0.5933680
H           3.9521279     2.8311170     0.1332844
C           0.0414985     2.5804878    -1.6395702
H           0.4126521     3.5767391    -1.9182047
H          -0.9082793     2.4510025    -2.1672381
C           1.0272198     1.5805067    -2.2381211
N           1.9318873     1.0161294    -1.3736462
H           2.5626153     0.3633301    -1.8242757
C           1.9137197     1.0392403     0.1024264
H           1.2934630     0.2107164     0.4658002
C           1.2433505     2.3427610     0.5607386
H           1.8696253     3.2063779     0.3081974
H           1.1419343     2.3218726     1.6518126
C          -0.1235924     2.4863162    -0.1173691
H          -0.7477094     1.6191968     0.1390361
H          -0.6488691     3.3715186     0.2599068
O           1.0576465     1.3412456    -3.4389098
C           1.2531162    -3.9061646     1.5640627
H           0.6394634    -4.7980391     1.6568894
C           1.4918716    -3.3454328     0.3082980
H           1.0706539    -3.8023368    -0.5831730
C           2.2803620    -2.2011019     0.1886343
H           2.4732521    -1.7875848    -0.7971825
C           2.8433389    -1.5902211     1.3212531
C           2.5984823    -2.1699049     2.5773699
H           3.0214391    -1.7073866     3.4652163
C           1.8103466    -3.3142833     2.6986994
H           1.6294786    -3.7413639     3.6816357
36
124_C17H17NO_8-7-16-18 (-30,) energy =    -788.0463431
C           5.6232594     1.7576390     1.0333363
H           6.3145909     2.5955565     1.0056243
C           6.0721832     0.4831899     1.3746379
H           7.1172798     0.3130208     1.6187582
C           5.1673367    -0.5756362     1.4052836
H           5.5065787    -1.5711313     1.6785834
C           3.8095328    -0.3855998     1.1056072
C           3.3546528     0.9054497     0.7477133
C           4.2796402     1.9570917     0.7199265
H           3.9523257     2.9526202     0.4392331
C          -0.0943204     2.4042840    -1.4630192
H           0.3106329     3.2931164    -1.9671737
H          -1.1028554     2.2583617    -1.8608321
C           0.7475973     1.2209249    -1.9340869
N           1.7444592     0.8019944    -1.0877170
H           2.2300511    -0.0226300    -1.4229114
C           1.8958698     1.1240341     0.3446929
H           1.2822501     0.4229756     0.9259691
C           1.3333646     2.5259429     0.6035169
H           1.9511807     3.2867033     0.1115763
H           1.3602228     2.7270846     1.6806386
C          -0.0951680     2.6176923     0.0560069
H          -0.7214423     1.8561594     0.5409668
H          -0.5388752     3.5899508     0.3003108
O           0.5905701     0.7135205    -3.0375642
C           1.2617181    -3.8604140     1.2929963
H           0.6253421    -4.7397963     1.3410612
C           2.1871322    -3.7197757     0.2584430
H           2.2746589    -4.4889257    -0.5041877
C           3.0038011    -2.5889405     0.1973690
H           3.7268977    -2.4852531    -0.6079102
C           2.9047705    -1.5781209     1.1653910
C           1.9751914    -1.7359160     2.2056567
H           1.9032172    -0.9718757     2.9756362
C           1.1601321    -2.8662881     2.2684510
H           0.4486529    -2.9728044     3.0831152
36
124_C17H17NO_8-7-16-18 (-15,) energy =    -788.0458993
C           5.6188974     1.7825303     1.1492848
H           6.3100279     2.6206289     1.1768452
C           6.0691022     0.4878055     1.3938626
H           7.1160306     0.2990142     1.6151933
C           5.1605398    -0.5685619     1.3620953
H           5.4978191    -1.5808187     1.5681861
C           3.8008999    -0.3561035     1.0911707
C           3.3454386     0.9567355     0.8169028
C           4.2720467     2.0053101     0.8612064
H           3.9462905     3.0201553     0.6615484
C          -0.1517191     2.3083596    -1.4279967
H           0.2702381     3.0712367    -2.0973802
H          -1.1917551     2.1691733    -1.7371948
C           0.5847301     1.0075383    -1.7368838
N           1.6119217     0.6648002    -0.8921073
H           2.0083070    -0.2442301    -1.1040843
C           1.8775011     1.2048968     0.4549206
H           1.2598274     0.6552532     1.1800278
C           1.4192360     2.6658479     0.5002883
H           2.0485097     3.2806622    -0.1550549
H           1.5330719     3.0470083     1.5216711
C          -0.0354581     2.7684635     0.0302274
H          -0.6722479     2.1446264     0.6726404
H          -0.3999485     3.7972856     0.1323018
O           0.3213652     0.3353415    -2.7262356
C           1.2505354    -3.8343260     1.1225125
H           0.6128655    -4.7139681     1.1308543
C           2.2158410    -3.6769008     0.1276633
H           2.3336605    -4.4330840    -0.6436964
C           3.0336064    -2.5452755     0.1174544
H           3.7870464    -2.4275801    -0.6575199
C           2.8945539    -1.5482758     1.0961787
C           1.9257623    -1.7246225     2.0971357
H           1.8265170    -0.9776506     2.8804718
C           1.1108567    -2.8565473     2.1096860
H           0.3696882    -2.9776232     2.8952965
36
124_C17H17NO_8-7-16-18 (0,) energy =    -788.0449095
C           5.6207397     1.8089395     1.2936849
H           6.3012896     2.6508004     1.3881608
C           6.0845394     0.5053653     1.4418937
H           7.1325980     0.3102755     1.6519526
C           5.1838109    -0.5527686     1.3367893
H           5.5284106    -1.5730914     1.4818677
C           3.8221312    -0.3364374     1.0790983
C           3.3565011     0.9873145     0.8766690
C           4.2722558     2.0377289     1.0163056
H           3.9399648     3.0618268     0.8904326
C          -0.1628226     2.2657832    -1.3855315
H           0.2737875     2.9055404    -2.1651793
H          -1.2229242     2.1584268    -1.6336450
C           0.4765621     0.8903628    -1.5453972
N           1.4986246     0.5767994    -0.6846589
H           1.8285560    -0.3742425    -0.8035343
C           1.8795640     1.2683003     0.5605827
H           1.2763072     0.8656808     1.3893038
C           1.5160710     2.7508085     0.4177580
H           2.1606661     3.2203506    -0.3361420
H           1.6952122     3.2603185     1.3714204
C           0.0515747     2.8971600    -0.0062297
H          -0.5941448     2.4075760     0.7360018
H          -0.2375371     3.9544307    -0.0233031
O           0.1393588     0.1223888    -2.4384198
C           1.3179470    -3.8478950     1.0294725
H           0.6917598    -4.7356696     1.0189202
C           2.3126510    -3.6789974     0.0658680
H           2.4646507    -4.4344293    -0.7001631
C           3.1149877    -2.5365487     0.0791579
H           3.8879002    -2.4069684    -0.6741259
C           2.9299881    -1.5386092     1.0501649
C           1.9314303    -1.7266320     2.0196152
H           1.7965103    -0.9811045     2.7986966
C           1.1328513    -2.8698498     2.0087824
H           0.3684485    -2.9995698     2.7703331
36
124_C17H17NO_8-7-16-18 (15,) energy =    -788.0425350
C           5.5967604     1.8283633     1.4172857
H           6.2650758     2.6696900     1.5795091
C           6.0761561     0.5233648     1.4657569
H           7.1259641     0.3232027     1.6616026
C           5.1836764    -0.5309688     1.2886501
H           5.5349295    -1.5558059     1.3727111
C           3.8180087    -0.3131697     1.0475353
C           3.3405327     1.0167166     0.9152522
C           4.2466752     2.0600962     1.1527922
H           3.9083001     3.0881215     1.0992561
C          -0.1789927     2.2393224    -1.3816134
H           0.2864142     2.7349185    -2.2450258
H          -1.2506074     2.1878868    -1.5960742
C           0.3467506     0.8099209    -1.3633287
N           1.3511263     0.5237099    -0.4733782
H           1.6096218    -0.4553105    -0.4893836
C           1.8572946     1.3399119     0.6447333
H           1.2848083     1.0977910     1.5550963
C           1.5863271     2.8140728     0.3074962
H           2.2484196     3.1295700    -0.5089376
H           1.8179345     3.4343806     1.1801332
C           0.1246387     3.0181636    -0.1002397
H          -0.5316812     2.6766949     0.7124007
H          -0.0838520     4.0848910    -0.2429143
O          -0.0672128    -0.0396825    -2.1434392
C           1.3924147    -3.8782044     0.9802656
H           0.7875906    -4.7806035     0.9682970
C           2.3952485    -3.6929119     0.0278792
H           2.5739828    -4.4497565    -0.7309289
C           3.1696904    -2.5318182     0.0414683
H           3.9447849    -2.3866895    -0.7063468
C           2.9482634    -1.5308377     1.0018426
C           1.9399258    -1.7341081     1.9587933
H           1.7732982    -0.9833897     2.7266254
C           1.1692968    -2.8961996     1.9474875
H           0.3963651    -3.0366807     2.6983684
36
124_C17H17NO_8-7-16-18 (30,) energy =    -788.0391328
C           5.5751657     1.8344398     1.5534906
H           6.2357553     2.6661094     1.7832277
C           6.0636559     0.5325384     1.5028183
H           7.1140995     0.3226201     1.6843404
C           5.1745570    -0.5071748     1.2509019
H           5.5284029    -1.5343791     1.2671516
C           3.8052084    -0.2828598     1.0241685
C           3.3216101     1.0503603     0.9731273
C           4.2262691     2.0749054     1.2993185
H           3.8851828     3.1029393     1.3236947
C          -0.1581564     2.2046424    -1.4154861
H           0.3543668     2.4895818    -2.3450580
H          -1.2305326     2.2411683    -1.6286153
C           0.1988183     0.7522125    -1.1389329
N           1.1873963     0.5120059    -0.2169211
H           1.3236415    -0.4784591    -0.0639808
C           1.8451394     1.4397311     0.7164475
H           1.3162072     1.4095978     1.6843225
C           1.6925730     2.8624623     0.1429014
H           2.3671963     2.9781766    -0.7149693
H           1.9934190     3.5948068     0.8979375
C           0.2490561     3.1437228    -0.2808226
H          -0.4189753     3.0053020     0.5808460
H           0.1456475     4.1898851    -0.5918356
O          -0.3378511    -0.1716133    -1.7394163
C           1.4721105    -3.9065117     0.8959214
H           0.8929442    -4.8253032     0.8718525
C           2.4302560    -3.6550989    -0.0875069
H           2.5980696    -4.3766326    -0.8823761
C           3.1709761    -2.4732312    -0.0601977
H           3.9085644    -2.2755472    -0.8331892
C           2.9600354    -1.5166718     0.9459607
C           1.9977933    -1.7855870     1.9343093
H           1.8383692    -1.0651968     2.7325878
C           1.2592032    -2.9689562     1.9079212
H           0.5198494    -3.1592740     2.6812298
36
124_C17H17NO_8-7-16-18 (45,) energy =    -788.0376281
C           5.5331752     1.8444496     1.7349940
H           6.1951069     2.6700154     1.9823666
C           6.0098854     0.5360203     1.7001858
H           7.0520165     0.3153685     1.9139728
C           5.1216264    -0.4914001     1.4062358
H           5.4689997    -1.5209559     1.4046438
C           3.7618311    -0.2555072     1.1268040
C           3.2833716     1.0767732     1.1104918
C           4.1967790     2.0954749     1.4427526
H           3.8543965     3.1240753     1.4812284
C          -0.1826906     1.9686052    -1.4075525
H           0.3142632     1.8768012    -2.3836417
H          -1.2476540     2.1119365    -1.6115843
C          -0.0388621     0.6286824    -0.7007302
N           0.9885422     0.5040477     0.2034978
H           0.9782900    -0.3975740     0.6628953
C           1.8455059     1.5426334     0.7752981
H           1.3985556     1.8754704     1.7295161
C           1.8432559     2.7671078    -0.1665439
H           2.4675180     2.5449697    -1.0421099
H           2.2944291     3.6220685     0.3419193
C           0.4252250     3.1263226    -0.6152239
H          -0.1952157     3.3449495     0.2653268
H           0.4421345     4.0397828    -1.2212853
O          -0.7774056    -0.3170312    -0.9475850
C           1.5130773    -3.9018687     0.6248789
H           0.9544682    -4.8256153     0.5032741
C           2.2894573    -3.4075804    -0.4250221
H           2.3363498    -3.9463130    -1.3675283
C           3.0007327    -2.2175019    -0.2737227
H           3.5972644    -1.8312862    -1.0955531
C           2.9409269    -1.4961959     0.9274376
C           2.1700387    -2.0102036     1.9827757
H           2.1355597    -1.4733342     2.9277239
C           1.4568511    -3.2015480     1.8302350
H           0.8612147    -3.5821573     2.6556621
36
124_C17H17NO_8-7-16-18 (60,) energy =    -788.0400234
C           5.5262077     1.8897095     1.9283822
H           6.2023290     2.7072997     2.1632877
C           5.9402080     0.5641300     2.0573478
H           6.9452280     0.3258280     2.3944446
C           5.0484340    -0.4538311     1.7424853
H           5.3636946    -1.4905187     1.8227659
C           3.7390527    -0.1958434     1.2895883
C           3.3069839     1.1464033     1.1923059
C           4.2315630     2.1610301     1.5024370
H           3.9101386     3.1980911     1.4447135
C          -0.2320453     1.7320972    -1.3151277
H           0.1286420     1.2756600    -2.2478181
H          -1.2844876     1.9810867    -1.4786110
C          -0.1918468     0.6438591    -0.2479545
N           0.9023130     0.6289216     0.5813347
H           0.8582827    -0.1092095     1.2734897
C           1.9244530     1.6546124     0.7462805
H           1.5981197     2.3307012     1.5578638
C           2.0093103     2.5308863    -0.5200738
H           2.5024562     1.9616773    -1.3200248
H           2.6375951     3.4011043    -0.3128365
C           0.6128822     2.9629026    -0.9732859
H           0.1293002     3.5374113    -0.1706765
H           0.6815353     3.6310902    -1.8397309
O          -1.0664316    -0.2085405    -0.1590516
C           1.5232587    -3.7666809     0.3224037
H           0.9726908    -4.6714485     0.0804046
C           1.9710419    -2.9239820    -0.6978956
H           1.7733222    -3.1746793    -1.7365642
C           2.6685729    -1.7578183    -0.3895006
H           3.0156861    -1.1054815    -1.1859924
C           2.9280405    -1.4094848     0.9446718
C           2.4881134    -2.2712650     1.9604731
H           2.6946614    -2.0196386     2.9978212
C           1.7845636    -3.4384211     1.6520583
H           1.4417059    -4.0882314     2.4528691
36
124_C17H17NO_8-7-16-18 (75,) energy =    -788.0427114
C           5.4978434     1.9040118     2.0765862
H           6.1712791     2.7094569     2.3566347
C           5.8959578     0.5719583     2.1894403
H           6.8857122     0.3187023     2.5593467