32
131_C16H14N2_10-9-16-17 (-165,) energy =    -727.6349749
C           5.7387333     1.0951141    -0.0382650
H           6.5922371     1.6877779    -0.3557292
C           5.9256604    -0.0959260     0.6525521
H           6.9341530    -0.4403710     0.8676500
C           4.8459102    -0.8878137     1.0605178
C           5.1906593    -2.1970458     1.7426652
H           6.2660904    -2.3827339     1.6733152
H           4.6796847    -3.0524437     1.2880652
H           4.9523044    -2.1896263     2.8171572
C           3.5186505    -0.4550610     0.7864026
C           3.3288072     0.7797720     0.1024122
C           4.4435740     1.5231737    -0.3053825
H           4.2754518     2.4676970    -0.8142806
C           0.4275778    -2.2921501     0.8066723
H          -0.5569964    -2.4737341     0.3969153
N           1.2140097    -1.2759236     0.3395778
C           2.3416230    -1.3145639     1.0390398
N           2.2992237    -2.3738030     1.9237260
H           2.9846560    -2.5923542     2.6286272
C           1.0735493    -2.9863368     1.8001452
H           0.7950221    -3.8351171     2.4067579
C          -0.3975496     2.8277447    -0.5803284
H          -1.3243634     3.3691879    -0.7512690
C           0.4051881     2.4500829    -1.6566729
H           0.1049735     2.6923528    -2.6730451
C           1.5970198     1.7588784    -1.4345401
H           2.2157366     1.4599004    -2.2764869
C           1.9988828     1.4215125    -0.1355576
C           1.1878532     1.8135947     0.9398189
H           1.4951473     1.5728792     1.9539572
C           0.0011221     2.5087493     0.7201438
H          -0.6126027     2.8068351     1.5665754
32
131_C16H14N2_10-9-16-17 (-150,) energy =    -727.6375817
C           5.7497093     1.0935793    -0.0227949
H           6.6090725     1.6892989    -0.3184166
C           5.9282861    -0.1218437     0.6287183
H           6.9339466    -0.4827581     0.8301637
C           4.8395869    -0.9150019     1.0087477
C           5.1463636    -2.2566271     1.6445710
H           6.1931708    -2.5231023     1.4718157
H           4.5245848    -3.0607706     1.2396198
H           5.0086474    -2.2475576     2.7362299
C           3.5219295    -0.4563496     0.7465081
C           3.3382305     0.7934697     0.0953476
C           4.4598401     1.5415551    -0.2859765
H           4.3037714     2.5019742    -0.7683496
C           0.4754950    -2.3660492     0.7672198
H          -0.4611098    -2.6480177     0.3051624
N           1.2925492    -1.4247148     0.1993304
C           2.3427245    -1.3113187     1.0003111
N           2.2236616    -2.1854808     2.0589224
H           2.8549975    -2.2621799     2.8414765
C           1.0255106    -2.8511599     1.9287136
H           0.6963656    -3.5853616     2.6487454
C          -0.4279918     2.7722861    -0.5699893
H          -1.3676213     3.2926826    -0.7359847
C           0.4257596     2.5039827    -1.6399961
H           0.1523210     2.8099329    -2.6466324
C           1.6331884     1.8387234    -1.4243480
H           2.2900529     1.6219217    -2.2624920
C           2.0027195     1.4203106    -0.1387509
C           1.1380157     1.7003530     0.9302171
H           1.4172004     1.3960543     1.9353285
C          -0.0652053     2.3691179     0.7173828
H          -0.7196803     2.5805481     1.5592719
32
131_C16H14N2_10-9-16-17 (-135,) energy =    -727.6392249
C           5.7774212     1.0977324    -0.0076384
H           6.6404228     1.6978452    -0.2834902
C           5.9514776    -0.1417062     0.6008342
H           6.9552724    -0.5164621     0.7859788
C           4.8557789    -0.9361138     0.9561058
C           5.1246510    -2.3049253     1.5485645
H           6.1551190    -2.6102218     1.3430550
H           4.4569303    -3.0684123     1.1381475
H           5.0064973    -2.3215586     2.6412766
C           3.5463634    -0.4552935     0.7098729
C           3.3643688     0.8114536     0.0992685
C           4.4914740     1.5651764    -0.2576178
H           4.3448115     2.5416403    -0.7098660
C           0.5478364    -2.4434785     0.7734801
H          -0.3389365    -2.8305191     0.2896672
N           1.4011411    -1.5910482     0.1183454
C           2.3692697    -1.3119869     0.9763165
N           2.1644676    -1.9792917     2.1623113
H           2.7371389    -1.9067760     2.9900262
C           0.9942425    -2.6978703     2.0470401
H           0.6092449    -3.3022763     2.8546435
C          -0.4375965     2.7211444    -0.5664399
H          -1.3886007     3.2202277    -0.7328140
C           0.4642849     2.5577193    -1.6181874
H           0.2170883     2.9240854    -2.6112747
C           1.6854821     1.9188592    -1.4019788
H           2.3786320     1.7816991    -2.2275522
C           2.0236854     1.4233923    -0.1343360
C           1.1084577     1.5960898     0.9155160
H           1.3593742     1.2314139     1.9076987
C          -0.1092556     2.2385297     0.7023926
H          -0.8020474     2.3665196     1.5302271
32
131_C16H14N2_10-9-16-17 (-120,) energy =    -727.6402482
C           5.6762849     1.4622903     0.8121629
H           6.5052475     2.1628186     0.7544354
C           5.8427087     0.2301316     1.4384206
H           6.8074929    -0.0365316     1.8631389
C           4.7904043    -0.6877166     1.5117913
C           5.0375185    -2.0324053     2.1649448
H           6.1118352    -2.2300802     2.2315873
H           4.5752744    -2.8470651     1.5988106
H           4.6386139    -2.0838560     3.1864265
C           3.5350914    -0.3491287     0.9500726
C           3.3652394     0.8934332     0.2904649
C           4.4493634     1.7849110     0.2431877
H           4.3188696     2.7361261    -0.2643695
C           0.9855504    -2.8879410     0.6490056
H           0.3869734    -3.5676741     0.0577193
N           1.8769020    -2.0236085     0.0570036
C           2.4313073    -1.3373835     1.0436364
N           1.9387509    -1.7624826     2.2541528
H           2.1697598    -1.3653092     3.1531623
C           1.0015767    -2.7432106     2.0132172
H           0.4526460    -3.2236280     2.8091276
C          -0.2894123     2.3865394    -1.4396156
H          -1.2021587     2.7796208    -1.8800063
C           0.2415913     1.1750361    -1.8847973
H          -0.2550297     0.6222521    -2.6781265
C           1.4115259     0.6632157    -1.3224311
H           1.8086847    -0.2852272    -1.6629177
C           2.0736699     1.3604117    -0.2996807
C           1.5330511     2.5831738     0.1347796
H           2.0338714     3.1320747     0.9282678
C           0.3603230     3.0899572    -0.4242334
H          -0.0444895     4.0330102    -0.0657167
32
131_C16H14N2_10-9-16-17 (-105,) energy =    -727.6416399
C           5.6936807     1.4567075     0.8451491
H           6.5221035     2.1593517     0.8078191
C           5.8677497     0.2009511     1.4226515
H           6.8348174    -0.0784469     1.8336005
C           4.8153840    -0.7182518     1.4693432
C           5.0388768    -2.0830581     2.0840012
H           6.1052491    -2.2601513     2.2538260
H           4.6568897    -2.8778235     1.4347935
H           4.5302268    -2.1893546     3.0504920
C           3.5603022    -0.3579812     0.9266531
C           3.3798943     0.9081011     0.3220127
C           4.4623401     1.8034255     0.3001838
H           4.3302950     2.7724250    -0.1721503
C           1.0844727    -2.9713357     0.6369305
H           0.5790775    -3.7425800     0.0714652
N           2.0559924    -2.1840562     0.0599760
C           2.4552445    -1.3501636     1.0056591
N           1.7858292    -1.5976537     2.1782893
H           1.8893318    -1.0722288     3.0344391
C           0.8956803    -2.6257774     1.9507179
H           0.2338950    -2.9954958     2.7194090
C          -0.3088923     2.3492853    -1.3757947
H          -1.2323225     2.7255988    -1.8083459
C           0.2099748     1.1199114    -1.7852461
H          -0.3062916     0.5366803    -2.5433937
C           1.3939451     0.6301355    -1.2331015
H           1.7862531    -0.3288058    -1.5518617
C           2.0826218     1.3677230    -0.2561401
C           1.5527200     2.6068869     0.1435952
H           2.0707981     3.1855983     0.9041188
C           0.3669402     3.0922629    -0.4065223
H          -0.0288167     4.0492793    -0.0760446
32
131_C16H14N2_10-9-16-17 (-90,) energy =    -727.6426952
C           5.7310256     1.4469405     0.8658063
H           6.5578363     2.1518340     0.8348049
C           5.9141719     0.1795225     1.4160257
H           6.8848986    -0.1035595     1.8155307
C           4.8641684    -0.7426087     1.4567852
C           5.0830982    -2.1157278     2.0512428
H           6.1294808    -2.2529185     2.3402330
H           4.8137973    -2.9008963     1.3371505
H           4.4656139    -2.2749556     2.9440083
C           3.6049992    -0.3717031     0.9348156
C           3.4151886     0.9040456     0.3571331
C           4.4935697     1.8042640     0.3416526
H           4.3561808     2.7812952    -0.1123488
C           1.1855236    -3.0373954     0.6705679
H           0.7717232    -3.8959128     0.1588881
N           2.2520574    -2.3397781     0.1469820
C           2.4961129    -1.3612501     1.0017197
N           1.6370008    -1.4259343     2.0692464
H           1.6014374    -0.7673237     2.8340050
C           0.7825479    -2.4885961     1.8611117
H          -0.0026856    -2.7409467     2.5576951
C          -0.3084340     2.2797679    -1.3190483
H          -1.2420858     2.6368901    -1.7457446
C           0.2178996     1.0471981    -1.7097163
H          -0.3023951     0.4425944    -2.4480339
C           1.4150424     0.5833112    -1.1643323
H           1.8159999    -0.3752561    -1.4751694
C           2.1103845     1.3491751    -0.2134856
C           1.5725847     2.5905176     0.1671650
H           2.0950398     3.1905118     0.9079517
C           0.3738646     3.0510390    -0.3768158
H          -0.0274288     4.0110121    -0.0620111
32
131_C16H14N2_10-9-16-17 (-75,) energy =    -727.6439126
C           5.7485270     1.4639017     0.8402425
H           6.5683776     2.1763867     0.8001910
C           5.9554798     0.1902696     1.3678000
H           6.9372298    -0.0874807     1.7433469
C           4.9163080    -0.7433761     1.4235759
C           5.1617204    -2.1168071     2.0057445
H           6.2018356    -2.2215435     2.3292099
H           4.9408113    -2.8998217     1.2738689
H           4.5177245    -2.3066347     2.8733640
C           3.6418453    -0.3759868     0.9374666
C           3.4285911     0.9050180     0.3790468
C           4.4958918     1.8173841     0.3507412
H           4.3393738     2.7977945    -0.0896555
C           1.2700734    -3.0869806     0.7520832
H           0.9298606    -4.0217806     0.3271664
N           2.4158838    -2.4721766     0.2981868
C           2.5362746    -1.3656155     1.0120994
N           1.5198588    -1.2672214     1.9279957
H           1.3681271    -0.4885676     2.5529129
C           0.6921779    -2.3569158     1.7597766
H          -0.1943698    -2.5042569     2.3579518
C          -0.3405026     2.2148381    -1.2491539
H          -1.2858542     2.5538322    -1.6645536
C           0.1996347     0.9874749    -1.6387326
H          -0.3215514     0.3691906    -2.3649125
C           1.4118576     0.5480594    -1.1077007
H           1.8253332    -0.4052097    -1.4202726
C           2.1096788     1.3319526    -0.1730529
C           1.5575014     2.5669197     0.2068600
H           2.0811974     3.1814370     0.9347844
C           0.3434106     3.0039445    -0.3232513
H          -0.0683603     3.9600090    -0.0101307
32
131_C16H14N2_10-9-16-17 (-60,) energy =    -727.6450496
C           5.7361746     1.4775462     0.7950444
H           6.5515228     2.1945722     0.7468096
C           5.9596898     0.1974947     1.2991285
H           6.9507002    -0.0794403     1.6501067
C           4.9283119    -0.7439690     1.3707956
C           5.2050084    -2.1148587     1.9447907
H           6.2441418    -2.1892194     2.2800205
H           5.0131232    -2.8992303     1.2073367
H           4.5552621    -2.3290003     2.8019563
C           3.6392021    -0.3781911     0.9186180
C           3.4109861     0.9105818     0.3800805
C           4.4705995     1.8302780     0.3398951
H           4.2980130     2.8143455    -0.0862386
C           1.2897642    -3.1114773     0.8723570
H           0.9983919    -4.1071552     0.5658792
N           2.4947692    -2.5700025     0.4887278
C           2.5318392    -1.3584347     1.0206147
N           1.3967214    -1.1188863     1.7540926
H           1.1657752    -0.2466092     2.2075526
C           0.5867950    -2.2279446     1.6534777
H          -0.3768641    -2.2823929     2.1370551
C          -0.3735202     2.2016216    -1.2287875
H          -1.3221435     2.5349642    -1.6411226
C           0.1871272     0.9910963    -1.6433960
H          -0.3216333     0.3810668    -2.3851464
C           1.4032026     0.5596265    -1.1162564
H           1.8334550    -0.3808432    -1.4466500
C           2.0857872     1.3332717    -0.1617099
C           1.5131693     2.5504667     0.2434704
H           2.0257368     3.1578019     0.9852914
C           0.2938974     2.9802224    -0.2826245
H          -0.1336878     3.9229044     0.0492266
32
131_C16H14N2_10-9-16-17 (-45,) energy =    -727.6455764
C           5.7396888     1.4808068     0.7663237
H           6.5513020     2.2012244     0.7086905
C           5.9752043     0.1965427     1.2518766
H           6.9737701    -0.0798896     1.5811240
C           4.9506545    -0.7512028     1.3423592
C           5.2649292    -2.1161687     1.9109582
H           6.2957541    -2.1467252     2.2778700
H           5.1304070    -2.9012566     1.1622002
H           4.5963091    -2.3707064     2.7408368
C           3.6469562    -0.3900179     0.9192761
C           3.4093513     0.9063242     0.3969835
C           4.4628018     1.8308394     0.3425447
H           4.2742272     2.8175426    -0.0706903
C           1.3255697    -3.1408503     1.0709388
H           1.0765916    -4.1812692     0.9103825
N           2.5671393    -2.6474753     0.7535405
C           2.5392737    -1.3593888     1.0670020
N           1.3157138    -1.0231340     1.5937473
H           1.0237872    -0.0908541     1.8497956
C           0.5281079    -2.1503976     1.5907374
H          -0.4881899    -2.1422177     1.9548774
C          -0.3692790     2.2163440    -1.2135485
H          -1.3152977     2.5546768    -1.6276204
C           0.2302827     1.0484129    -1.6926154
H          -0.2458647     0.4775235    -2.4854075
C           1.4427261     0.6110902    -1.1630056
H           1.9040391    -0.2965831    -1.5410837
C           2.0837355     1.3349689    -0.1427478
C           1.4731314     2.5096341     0.3264482
H           1.9566142     3.0799568     1.1157633
C           0.2557576     2.9455075    -0.2017477
H          -0.2018385     3.8549776     0.1790164
32
131_C16H14N2_10-9-16-17 (-30,) energy =    -727.6450922
C           5.7320587     1.4472074     0.7326799
H           6.5436964     2.1664669     0.6638759
C           5.9698449     0.1607672     1.2075613
H           6.9732610    -0.1196699     1.5178854
C           4.9467948    -0.7873044     1.3187581
C           5.2942047    -2.1437625     1.8885923
H           6.3307324    -2.1472570     2.2411696
H           5.1679693    -2.9368355     1.1472188
H           4.6403948    -2.4120767     2.7246406
C           3.6311475    -0.4278298     0.9185075
C           3.3943798     0.8762527     0.4066327
C           4.4474531     1.7982908     0.3349780
H           4.2496674     2.7863950    -0.0706628
C           1.3369473    -3.1795227     1.2982532
H           1.1230479    -4.2399413     1.2961190
N           2.5980835    -2.7071029     1.0434933
C           2.5217085    -1.3829683     1.1220441
N           1.2343764    -1.0047459     1.4251860
H           0.9026986    -0.0542257     1.5043211
C           0.4704439    -2.1405244     1.5383142
H          -0.5823809    -2.1023156     1.7744640
C          -0.3586107     2.2481373    -1.2163695
H          -1.2969729     2.6027864    -1.6340555
C           0.2811251     1.1350152    -1.7692027
H          -0.1566140     0.6240040    -2.6226539
C           1.4836999     0.6770708    -1.2346180
H           1.9775450    -0.1877754    -1.6683033
C           2.0744836     1.3246309    -0.1357224
C           1.4253915     2.4459489     0.4065043
H           1.8730271     2.9590269     1.2540488
C           0.2168300     2.9021773    -0.1269692
H          -0.2713010     3.7695425     0.3098295
32
131_C16H14N2_10-9-16-17 (-15,) energy =    -727.6435702
C           5.7228063     1.3936224     0.6943834
H           6.5379721     2.1066958     0.6069047
C           5.9578037     0.1076108     1.1683848
H           6.9651447    -0.1803836     1.4580948
C           4.9324595    -0.8347698     1.3084696
C           5.3080037    -2.1827199     1.8810602
H           6.3652819    -2.1809553     2.1662905
H           5.1331161    -2.9911076     1.1668295
H           4.7063921    -2.4339294     2.7595661
C           3.6058444    -0.4736496     0.9321355
C           3.3753182     0.8347513     0.4207747
C           4.4323971     1.7486326     0.3219442
H           4.2296233     2.7364206    -0.0821104
C           1.3360855    -3.2068157     1.5414849
H           1.1493436    -4.2598727     1.7042966
N           2.6048317    -2.7291994     1.3560732
C           2.4937234    -1.4132440     1.1891853
N           1.1663100    -1.0516975     1.2537757
H           0.8029385    -0.1147031     1.1590853
C           0.4230494    -2.1820068     1.4850363
H          -0.6514653    -2.1489960     1.5856738
C          -0.3438144     2.2949782    -1.2070837
H          -1.2717039     2.6735403    -1.6270779
C           0.3349324     1.2458843    -1.8336418
H          -0.0617095     0.8091423    -2.7463493
C           1.5247003     0.7577877    -1.2960186
H           2.0501786    -0.0571538    -1.7857415
C           2.0617993     1.3098459    -0.1199862
C           1.3746231     2.3686361     0.4958139
H           1.7825273     2.8087470     1.4022001
C           0.1790682     2.8549484    -0.0412673
H          -0.3394638     3.6728753     0.4520698
32
131_C16H14N2_10-9-16-17 (0,) energy =    -727.6419443
C           5.7655648     1.3072843     0.4586506
H           6.5964735     1.9800159     0.2649431
C           5.9735488     0.0891098     1.0939832
H           6.9791147    -0.1893057     1.3984562
C           4.9312628    -0.8059719     1.3620979
C           5.3114830    -2.0927507     2.0600556
H           6.3909037    -2.1024242     2.2454494
H           5.0444122    -2.9727700     1.4692879
H           4.7863655    -2.2126807     3.0111870
C           3.6012860    -0.4608724     0.9706887
C           3.3965784     0.7900339     0.3202290
C           4.4751615     1.6487162     0.0758793
H           4.2822807     2.5945674    -0.4224688
C           1.3458265    -3.1163767     1.9026158
H           1.1678759    -4.0858564     2.3484218
N           2.6017896    -2.5801382     1.8473113
C           2.4883490    -1.3962557     1.2470880
N           1.1664351    -1.1781509     0.9203318
H           0.7953411    -0.3604160     0.4615807
C           0.4342453    -2.2626211     1.3323095
H          -0.6337725    -2.3196732     1.1837189
C          -0.3490519     2.4019410    -1.0972058
H          -1.2829942     2.8225054    -1.4598764
C           0.4343361     1.6056182    -1.9352305
H           0.1135943     1.4060576    -2.9542550
C           1.6352663     1.0661151    -1.4696348
H           2.2445976     0.4478586    -2.1232291
C           2.0709771     1.3097875    -0.1565544
C           1.2773139     2.1187352     0.6735853
H           1.6083340     2.3201770     1.6887664
C           0.0762759     2.6581855     0.2079880
H          -0.5244107     3.2818129     0.8647781
32
131_C16H14N2_10-9-16-17 (15,) energy =    -727.6435704
C           5.7972558     1.1732247     0.2475241
H           6.6459221     1.7870559    -0.0416252
C           5.9800578     0.0410462     1.0339409
H           6.9822967    -0.2316303     1.3544960
C           4.9144398    -0.7822884     1.4155166
C           5.2497826    -2.0112094     2.2298833
H           6.3359966    -2.0955751     2.3404520
H           4.8709904    -2.9251235     1.7629304
H           4.7922652    -1.9791950     3.2217931
C           3.5936142    -0.4381524     1.0043513
C           3.4081512     0.7373260     0.2230697
C           4.5113671     1.5149198    -0.1519375
H           4.3391520     2.4125405    -0.7390552
C           1.2297371    -2.8920474     2.1803018
H           0.9581263    -3.6929511     2.8549028
N           2.4564375    -2.2897417     2.2481544
C           2.4759867    -1.3615378     1.2942011
N           1.2698237    -1.3595000     0.6293188
H           1.0180835    -0.7538308    -0.1379673
C           0.4736548    -2.3329419     1.1788966
H          -0.5234931    -2.5292762     0.8142756
C          -0.3865190     2.4224465    -0.9496644
H          -1.3350307     2.8623734    -1.2454116
C           0.4920451     1.9327703    -1.9163412
H           0.2316416     1.9893514    -2.9700236
C           1.7132658     1.3699969    -1.5340176
H           2.3981435     0.9922813    -2.2889368
C           2.0716941     1.2809535    -0.1790184
C           1.1778349     1.7816318     0.7836562
H           1.4462628     1.7248537     1.8347618
C          -0.0377865     2.3466811     0.4018288
H          -0.7132132     2.7327016     1.1607058
32
131_C16H14N2_10-9-16-17 (30,) energy =    -727.6450921
C           5.8350420     1.1950625     0.1636093
H           6.6868184     1.7962858    -0.1427130
C           6.0192842     0.0635523     0.9527504
H           7.0236587    -0.2214247     1.2557430
C           4.9466052    -0.7387825     1.3570427
C           5.2513737    -1.9731606     2.1748640
H           6.3344786    -2.1147005     2.2494005
H           4.8118567    -2.8723094     1.7311539
H           4.8314626    -1.9037100     3.1814962
C           3.6303978    -0.3752836     0.9623059
C           3.4397679     0.7959333     0.1809177
C           4.5480978     1.5554158    -0.2178833
H           4.3813602     2.4542954    -0.8045923
C           1.1773228    -2.6613735     2.2798367
H           0.8340868    -3.3409134     3.0483806
N           2.3784620    -2.0104072     2.3895996
C           2.4982494    -1.2647904     1.2964203
N           1.3954992    -1.4323568     0.4914155
H           1.2227256    -0.9506047    -0.3791188
C           0.5466326    -2.3185544     1.1082264
H          -0.3936621    -2.6135174     0.6671996
C          -0.3955204     2.4196545    -0.9388979
H          -1.3561180     2.8420339    -1.2210454
C           0.5246209     2.0501793    -1.9199878
H           0.2846287     2.1824584    -2.9717913
C           1.7606988     1.5099927    -1.5543770
H           2.4771644     1.2251553    -2.3208732
C           2.0939097     1.3239410    -0.2027009
C           1.1575265     1.7028051     0.7748354
H           1.4040721     1.5704115     1.8244165
C          -0.0728633     2.2456673     0.4100088
H          -0.7810464     2.5376530     1.1809478
32
131_C16H14N2_10-9-16-17 (45,) energy =    -727.6455767
C           5.8480318     1.1659662     0.1365692
H           6.7053598     1.7560163    -0.1762504
C           6.0280516     0.0273834     0.9186832
H           7.0317664    -0.2735650     1.2083572
C           4.9452417    -0.7548489     1.3332286
C           5.2116032    -1.9980593     2.1508317
H           6.2888222    -2.1704049     2.2404388
H           4.7578577    -2.8851238     1.6948324
H           4.7795434    -1.9180464     3.1518193
C           3.6366184    -0.3669913     0.9508719
C           3.4466894     0.8075704     0.1799866
C           4.5634171     1.5509881    -0.2295090
H           4.4073417     2.4563320    -0.8090615
C           1.0897248    -2.4728919     2.3859831
H           0.6709042    -3.0204786     3.2196269
N           2.2595013    -1.7647514     2.5129632
C           2.4865531    -1.2186016     1.3262837
N           1.4990979    -1.5755456     0.4402367
H           1.4112785    -1.2374949    -0.5073480
C           0.5948586    -2.3670828     1.1089556
H          -0.2806460    -2.7733963     0.6253063
C          -0.4102660     2.3943215    -0.9121295
H          -1.3772538     2.8065038    -1.1876402
C           0.5481331     2.1362138    -1.8923906
H           0.3314113     2.3441244    -2.9370447
C           1.7913516     1.6091956    -1.5351752
H           2.5349860     1.4081801    -2.3023760
C           2.0959412     1.3253135    -0.1937229
C           1.1208669     1.5913075     0.7831742
H           1.3424782     1.3827014     1.8257575
C          -0.1177757     2.1209761     0.4268412
H          -0.8558213     2.3253926     1.1979649
32
131_C16H14N2_10-9-16-17 (60,) energy =    -727.6450497
C           5.8585236     1.1647217     0.1055463
H           6.7190900     1.7488277    -0.2098698
C           6.0374020     0.0128544     0.8696188
H           7.0409536    -0.3031328     1.1435061
C           4.9472055    -0.7556424     1.2892964
C           5.1832561    -2.0109431     2.0979133
H           6.2550535    -2.1845983     2.2350160
H           4.7566395    -2.8921471     1.6037391
H           4.7060517    -1.9453330     3.0796959
C           3.6437089    -0.3445302     0.9261012
C           3.4525204     0.8390004     0.1738977
C           4.5750872     1.5732496    -0.2396049
H           4.4267298     2.4887284    -0.8049907
C           1.0290758    -2.2956427     2.4588989
H           0.5408617    -2.7088638     3.3313061
N           2.1516449    -1.5089329     2.5742857
C           2.4837362    -1.1703057     1.3384789
N           1.6210318    -1.7383134     0.4346119
H           1.6323250    -1.5823874    -0.5630778
C           0.6757637    -2.4479796     1.1409721
H          -0.1264586    -2.9811320     0.6534829
C          -0.4191706     2.3996541    -0.8999211
H          -1.3906251     2.8039174    -1.1717005
C           0.5681633     2.2305125    -1.8712358
H           0.3691404     2.4993194    -2.9055203
C           1.8156331     1.7131434    -1.5188231
H           2.5790357     1.5772021    -2.2807954
C           2.0985234     1.3504999    -0.1913704
C           1.0950619     1.5273188     0.7768389
H           1.2972369     1.2591919     1.8092988
C          -0.1494516     2.0469750     0.4246260
H          -0.9095835     2.1816578     1.1896308
32
131_C16H14N2_10-9-16-17 (75,) energy =    -727.6439127
C           5.8780786     1.1245488     0.0936487
H           6.7443075     1.7004565    -0.2215894
C           6.0483255    -0.0438509     0.8346926
H           7.0494372    -0.3803106     1.0927337
C           4.9477350    -0.7966160     1.2551470
C           5.1560296    -2.0639515     2.0525955
H           6.2218140    -2.2466817     2.2203774
H           4.7412174    -2.9376152     1.5347627
H           4.6525383    -2.0059842     3.0225021
C           3.6494691    -0.3565254     0.9139989
C           3.4661494     0.8395409     0.1831989
C           4.5980150     1.5614885    -0.2291080
H           4.4605460     2.4878401    -0.7792327
C           0.9805146    -2.1893998     2.5033987
H           0.4225069    -2.4796341     3.3834823
N           2.0371302    -1.3099151     2.5863785
C           2.4829739    -1.1668882     1.3496548
N           1.7633512    -1.9485021     0.4819568
H           1.8829283    -1.9736279    -0.5205027
C           0.7864342    -2.5964296     1.2075954
H           0.0759666    -3.2660900     0.7468575
C          -0.3936341     2.4264900    -0.8905765
H          -1.3622991     2.8364716    -1.1639982
C           0.6053752     2.2816407    -1.8542950
H           0.4180417     2.5746729    -2.8842005
C           1.8482575     1.7566893    -1.4998126
H           2.6195877     1.6373771    -2.2565139
C           2.1158885     1.3617689    -0.1781660
C           1.1020362     1.5148090     0.7829343
H           1.2915124     1.2232703     1.8108014
C          -0.1389654     2.0421871     0.4275582
H          -0.9079347     2.1581644     1.1868258
32
131_C16H14N2_10-9-16-17 (90,) energy =    -727.6426951
C           5.8660676     1.0922087     0.0877077
H           6.7403404     1.6572940    -0.2249906
C           6.0203610    -0.0929525     0.8047933
H           7.0163730    -0.4529617     1.0505850
C           4.9068594    -0.8281715     1.2219881
C           5.0932803    -2.1082140     2.0052352
H           6.1517810    -2.2825231     2.2207608
H           4.7157248    -2.9793675     1.4554970
H           4.5467378    -2.0722275     2.9533571
C           3.6143114    -0.3560944     0.9025171
C           3.4474350     0.8546164     0.1929003
C           4.5919063     1.5602802    -0.2142167
H           4.4688244     2.4975645    -0.7489343
C           0.8845668    -2.1055504     2.4891456
H           0.2433650    -2.2905275     3.3404632
N           1.8581327    -1.1313878     2.5271576
C           2.4425946    -1.1607275     1.3417467
N           1.8918533    -2.1404274     0.5551397
H           2.1436338    -2.3327971    -0.4037594
C           0.8820855    -2.7440251     1.2753365
H           0.2805281    -3.5416882     0.8662234
C          -0.3731344     2.5248376    -0.8921511
H          -1.3313439     2.9561339    -1.1698460
C           0.6261290     2.3563911    -1.8519933
H           0.4495090     2.6519721    -2.8830763
C           1.8550629     1.8043894    -1.4915963
H           2.6265231     1.6662261    -2.2449205
C           2.1081550     1.4041926    -0.1683718
C           1.0949680     1.5809106     0.7889231
H           1.2725721     1.2830694     1.8165500
C          -0.1323106     2.1362880     0.4269140
H          -0.9017269     2.2700236     1.1828745
32
131_C16H14N2_10-9-16-17 (105,) energy =    -727.6416398
C           5.8262674     1.1095013     0.0823235