24
280_C8H12N2O2_16-0-1-2 (-165,) energy =    -572.0092335
C           2.5866179    -0.4299137    -1.5429234
N           1.2592734    -0.7352065    -1.3668695
C           0.6083065    -1.5704288    -2.3634916
H           1.3703578    -2.0730863    -2.9575658
H          -0.0250973    -0.9763007    -3.0384572
H          -0.0255240    -2.3111869    -1.8602914
C           0.3766984    -0.1007754    -0.4024596
H           0.9093126     0.6679874     0.1531113
H          -0.0299397    -0.8256591     0.3130810
H          -0.4617696     0.3699311    -0.9353406
C           3.3767324     0.1127962     0.9729017
O           2.3670315    -0.4091426     1.7241898
C           2.5779651    -0.4244634     3.1275795
H           1.6945002    -0.8957396     3.5626342
H           2.6824538     0.5924554     3.5291767
H           3.4702522    -1.0077426     3.3902244
C           3.3792810     0.1214871    -0.4277866
N           4.5858509     0.6918190    -0.7970403
H           4.8670938     0.6882368    -1.7682929
C           5.3145908     1.0349161     0.2906545
H           6.2878039     1.4954667     0.1991242
C           4.5894950     0.6977342     1.4241330
H           4.9026230     0.8537737     2.4458529
O           3.1655670    -0.6475988    -2.6179715
24
280_C8H12N2O2_16-0-1-2 (-150,) energy =    -572.0068126
C           2.5642561    -0.3218964    -1.6004203
N           1.2285135    -0.6045796    -1.4307254
C           0.6202854    -1.6359209    -2.2545403
H           1.3760970    -2.0390389    -2.9277426
H          -0.2061325    -1.2323853    -2.8561153
H           0.2197564    -2.4363407    -1.6166185
C           0.3689784    -0.0075689    -0.4251312
H           0.8766208     0.8271478     0.0563760
H           0.0731213    -0.7266195     0.3487610
H          -0.5392135     0.3717567    -0.9139600
C           3.3719295     0.1077304     0.9302436
O           2.3471898    -0.4065687     1.6647593
C           2.5527063    -0.4644285     3.0679181
H           1.6542164    -0.9204573     3.4881626
H           2.6856942     0.5382991     3.4957467
H           3.4264309    -1.0804805     3.3178191
C           3.3764998     0.1619668    -0.4699711
N           4.6007261     0.7077148    -0.8198883
H           4.8834399     0.7266637    -1.7905656
C           5.3398197     0.9874708     0.2783750
H           6.3290400     1.4156956     0.2023391
C           4.6033269     0.6361401     1.4002718
H           4.9213918     0.7459525     2.4264385
O           3.1373472    -0.5346423    -2.6791212
24
280_C8H12N2O2_16-0-1-2 (-135,) energy =    -572.0026227
C           2.5324921    -0.2098453    -1.6531810
N           1.1873166    -0.4862852    -1.4886813
C           0.6425248    -1.6775953    -2.1206017
H           1.3564734    -2.0431772    -2.8586840
H          -0.3041724    -1.4547175    -2.6301644
H           0.4512331    -2.4573846    -1.3678239
C           0.3547609     0.1046185    -0.4558187
H           0.8452910     0.9844780    -0.0385305
H           0.1381319    -0.5927136     0.3629836
H          -0.5961001     0.4193582    -0.9073144
C           3.3649452     0.1006916     0.8857460
O           2.3285847    -0.4052167     1.6076177
C           2.5315234    -0.5023202     3.0092181
H           1.6193832    -0.9407315     3.4185267
H           2.6945518     0.4856829     3.4600204
H           3.3859632    -1.1504004     3.2442223
C           3.3670079     0.2022341    -0.5128368
N           4.6078065     0.7209929    -0.8482290
H           4.8870212     0.7680513    -1.8189712
C           5.3586362     0.9375841     0.2555241
H           6.3620257     1.3336556     0.1909052
C           4.6145258     0.5713594     1.3679174
H           4.9400775     0.6335775     2.3956836
O           3.0918216    -0.3969651    -2.7423530
24
280_C8H12N2O2_16-0-1-2 (-120,) energy =    -571.9973767
C           2.5143893    -0.1195625    -1.7189308
N           1.1606238    -0.4127709    -1.5616429
C           0.7040810    -1.7299747    -1.9821197
H           1.3716167    -2.1077174    -2.7579302
H          -0.3102868    -1.6710270    -2.3963328
H           0.6892283    -2.4319535    -1.1331546
C           0.3432921     0.2090912    -0.5310423
H           0.8105060     1.1374060    -0.1966555
H           0.1903385    -0.4354931     0.3432753
H          -0.6369398     0.4539154    -0.9619041
C           3.3560210     0.0755861     0.8254722
O           2.3091387    -0.4333539     1.5276435
C           2.5001530    -0.5671677     2.9282458
H           1.5761135    -0.9955077     3.3209940
H           2.6807493     0.4065914     3.4024192
H           3.3389914    -1.2386632     3.1533293
C           3.3624636     0.2257394    -0.5696783
N           4.6150751     0.7305381    -0.8844327
H           4.8941700     0.8137115    -1.8527337
C           5.3685692     0.8906202     0.2265200
H           6.3811222     1.2653473     0.1784491
C           4.6147570     0.5003912     1.3245633
H           4.9409738     0.5172170     2.3538115
O           3.0598769    -0.2560432    -2.8202048
24
280_C8H12N2O2_16-0-1-2 (-105,) energy =    -571.9922898
C           2.2473948     0.0720853    -1.5105551
N           0.9711890    -0.3699818    -1.0065709
C           0.7101414    -1.7586145    -1.4086449
H           1.5137923    -2.4052752    -1.0413779
H           0.6327530    -1.8759218    -2.5025259
H          -0.2277243    -2.0905003    -0.9509051
C          -0.1055457     0.5073663    -1.4864867
H           0.1061857     1.5393763    -1.1912424
H          -1.0389594     0.1971777    -1.0048192
H          -0.2388140     0.4772813    -2.5784613
C           3.4603509    -0.1241675     0.8318238
O           2.4732459    -0.6335653     1.6010955
C           2.7867163    -0.8271188     2.9729267
H           1.8818901    -1.2252260     3.4353569
H           3.0590838     0.1193365     3.4583923
H           3.6075893    -1.5458137     3.0984528
C           3.3138163     0.1580133    -0.5382084
N           4.5462623     0.6318357    -0.9663871
H           4.6846682     0.9239913    -1.9238123
C           5.4226471     0.6725711     0.0607501
H           6.4345006     1.0287739    -0.0720319
C           4.7881444     0.2052355     1.2060305
H           5.2383132     0.1155532     2.1834263
O           2.4166713     0.4522761    -2.6686306
24
280_C8H12N2O2_16-0-1-2 (-90,) energy =    -571.9970417
C           2.2244813     0.1915002    -1.5094583
N           0.9501710    -0.2244324    -1.0190524
C           0.7484513    -1.6752514    -1.1420106
H           1.5595038    -2.2073629    -0.6369499
H           0.7044531    -2.0003535    -2.1945368
H          -0.1915602    -1.9482820    -0.6514811
C          -0.1421775     0.4924894    -1.6904416
H           0.0243157     1.5695954    -1.6134362
H          -1.0760564     0.2432242    -1.1756789
H          -0.2408911     0.2349457    -2.7551596
C           3.4696497    -0.1539776     0.8021933
O           2.4832569    -0.7125911     1.5436249
C           2.7924771    -0.9630374     2.9070795
H           1.8882960    -1.3844672     3.3498437
H           3.0591315    -0.0366032     3.4323716
H           3.6164111    -1.6826255     3.0048710
C           3.3091131     0.2065736    -0.5440340
N           4.5379230     0.6939023    -0.9602692
H           4.6591858     1.0561082    -1.8958929
C           5.4263316     0.6787613     0.0594680
H           6.4360834     1.0439750    -0.0633831
C           4.8022164     0.1491953     1.1826474
H           5.2611948     0.0023527     2.1490765
O           2.3833753     0.6809668    -2.6288607
24
280_C8H12N2O2_16-0-1-2 (-75,) energy =    -572.0025181
C           2.1979578     0.3046735    -1.4938211
N           0.9333266    -0.1474958    -1.0636340
C           0.7836400    -1.6059373    -0.9824599
H           1.6073674    -2.0386635    -0.4120985
H           0.7511767    -2.0670695    -1.9827613
H          -0.1488852    -1.8426853    -0.4599377
C          -0.1689276     0.4462703    -1.8261816
H          -0.0467517     1.5300875    -1.8654078
H          -1.1048984     0.2083690    -1.3101806
H          -0.2261590     0.0718458    -2.8590030
C           3.4688651    -0.1812082     0.7927250
O           2.4782115    -0.7398102     1.5339809
C           2.7963467    -1.0236396     2.8886892
H           1.8888814    -1.4362515     3.3332071
H           3.0867442    -0.1129652     3.4285546
H           3.6070064    -1.7607924     2.9635611
C           3.2967173     0.2265871    -0.5366449
N           4.5263866     0.7107779    -0.9502843
H           4.6317459     1.1232969    -1.8670390
C           5.4298950     0.6440682     0.0548546
H           6.4442123     0.9951523    -0.0706070
C           4.8119297     0.0838501     1.1656733
H           5.2800495    -0.1066086     2.1200907
O           2.3586242     0.9121456    -2.5561228
24
280_C8H12N2O2_16-0-1-2 (-60,) energy =    -572.0066502
C           2.1705055     0.4146140    -1.4675251
N           0.9199589    -0.1088960    -1.1356257
C           0.8103672    -1.5517843    -0.9079595
H           1.6460749    -1.9100455    -0.3088548
H           0.7816279    -2.1035536    -1.8610782
H          -0.1130634    -1.7631593    -0.3585818
C          -0.1745788     0.4054271    -1.9581118
H          -0.0912935     1.4893426    -2.0433263
H          -1.1202323     0.1488044    -1.4695947
H          -0.1736005    -0.0172819    -2.9739311
C           3.4670976    -0.2066422     0.7895518
O           2.4770140    -0.7582351     1.5409712
C           2.8149707    -1.0764682     2.8830523
H           1.9066266    -1.4754678     3.3382148
H           3.1386590    -0.1837569     3.4337563
H           3.6084154    -1.8344640     2.9275068
C           3.2789466     0.2430477    -0.5236044
N           4.5083668     0.7267921    -0.9378616
H           4.5964195     1.1853622    -1.8345925
C           5.4295110     0.6096604     0.0463944
H           6.4480220     0.9451466    -0.0870158
C           4.8213648     0.0211380     1.1470699
H           5.3013527    -0.2105121     2.0863708
O           2.3363274     1.1358357    -2.4581501
24
280_C8H12N2O2_16-0-1-2 (-45,) energy =    -572.0088995
C           2.1378853     0.4980621    -1.4386634
N           0.9102263    -0.0983769    -1.2112078
C           0.8011868    -1.5070847    -0.8426730
H           1.6515073    -1.8186577    -0.2415441
H           0.7402224    -2.1404287    -1.7416827
H          -0.1070606    -1.6638939    -0.2502614
C          -0.1787127     0.3643003    -2.0655067
H          -0.0970669     1.4413287    -2.2094189
H          -1.1295511     0.1262825    -1.5771753
H          -0.1614327    -0.1156243    -3.0556321
C           3.4648867    -0.2161099     0.7885546
O           2.4825929    -0.7627028     1.5571600
C           2.8470469    -1.1054828     2.8860504
H           1.9432725    -1.4961375     3.3573994
H           3.1984174    -0.2259758     3.4409849
H           3.6286995    -1.8767373     2.9012656
C           3.2568184     0.2581300    -0.5129144
N           4.4822956     0.7457266    -0.9348247
H           4.5504391     1.2422750    -1.8130660
C           5.4210645     0.5986390     0.0284739
H           6.4407997     0.9243067    -0.1189141
C           4.8279966    -0.0093981     1.1258715
H           5.3222933    -0.2678178     2.0506485
O           2.3033355     1.3083495    -2.3607152
24
280_C8H12N2O2_16-0-1-2 (-30,) energy =    -572.0095859
C           2.1373921     0.5643245    -1.4681691
N           0.9410686    -0.1052090    -1.3566988
C           0.8061970    -1.4687120    -0.8661291
H           1.7333231    -1.8116874    -0.4155433
H           0.5482993    -2.1391431    -1.6995413
H           0.0127899    -1.5359224    -0.1121215
C          -0.1561321     0.3530285    -2.1967685
H          -0.0351498     1.4162971    -2.3994355
H          -1.1036274     0.1767977    -1.6749120
H          -0.1834748    -0.1820697    -3.1578475
C           3.4588077    -0.2436513     0.7382096
O           2.4723110    -0.7985759     1.4970161
C           2.8362166    -1.1734161     2.8168961
H           1.9298478    -1.5659138     3.2818790
H           3.1973006    -0.3098947     3.3905926
H           3.6104191    -1.9523901     2.8140376
C           3.2536738     0.2683708    -0.5496310
N           4.4804636     0.7692076    -0.9520541
H           4.5480074     1.3017135    -1.8090309
C           5.4187282     0.5873677     0.0057908
H           6.4398534     0.9129556    -0.1317038
C           4.8229581    -0.0534596     1.0823531
H           5.3152019    -0.3425172     1.9991195
O           2.3024969     1.4540013    -2.3161238
24
280_C8H12N2O2_16-0-1-2 (-15,) energy =    -572.0093543
C           2.1243310     0.6022113    -1.4531353
N           0.9714622    -0.1405633    -1.4412267
C           0.8103038    -1.4436545    -0.8196184
H           1.7684466    -1.8272982    -0.4781025
H           0.3975486    -2.1426230    -1.5597874
H           0.1270431    -1.4046661     0.0379130
C          -0.1466244     0.3101509    -2.2554080
H           0.0466719     1.3292002    -2.5865737
H          -1.0723506     0.2755929    -1.6671256
H          -0.2759097    -0.3315426    -3.1387819
C           3.4573597    -0.2435423     0.7384663
O           2.4778468    -0.8074331     1.5007735
C           2.8545123    -1.1961610     2.8127111
H           1.9533107    -1.5959823     3.2816293
H           3.2191021    -0.3386085     3.3932544
H           3.6302121    -1.9734830     2.7943646
C           3.2445440     0.2830925    -0.5424092
N           4.4659301     0.8021892    -0.9394000
H           4.5229046     1.3617619    -1.7797472
C           5.4088876     0.6134009     0.0126519
H           6.4277798     0.9459315    -0.1248617
C           4.8219356    -0.0489612     1.0802586
H           5.3195904    -0.3500104     1.9901922
O           2.2764757     1.5469042    -2.2433326
24
280_C8H12N2O2_16-0-1-2 (0,) energy =    -572.0083557
C           2.1105940     0.6220620    -1.4474835
N           0.9975668    -0.1748916    -1.5316690
C           0.7609784    -1.3925696    -0.7771941
H           1.6987666    -1.8154054    -0.4254612
H           0.2742282    -2.1219112    -1.4366500
H           0.1101043    -1.2223577     0.0903623
C          -0.1107311     0.2731022    -2.3625554
H           0.1646137     1.2162860    -2.8310194
H          -1.0162871     0.4099388    -1.7553604
H          -0.3286413    -0.4705240    -3.1404888
C           3.4635618    -0.2588886     0.7331081
O           2.5034917    -0.8568173     1.4957578
C           2.9045898    -1.2717022     2.7922272
H           2.0160984    -1.6968408     3.2632062
H           3.2641696    -0.4231691     3.3889073
H           3.6915564    -2.0362851     2.7441397
C           3.2307895     0.2974789    -0.5326252
N           4.4404199     0.8522053    -0.9197976
H           4.4806143     1.4311763    -1.7478794
C           5.3943739     0.6535359     0.0182802
H           6.4062708     1.0075405    -0.1173275
C           4.8268829    -0.0482955     1.0705338
H           5.3355387    -0.3640521     1.9692434
O           2.2600004     1.5974906    -2.2008469
24
280_C8H12N2O2_16-0-1-2 (15,) energy =    -572.0093542
C           2.8070608    -1.3314110    -1.1222555
N           1.4405683    -1.4212077    -1.1970716
C           0.5023824    -0.3704555    -0.8419068
H           1.0269006     0.5594516    -0.6369535
H          -0.0913116    -0.6355150     0.0418332
H          -0.1840114    -0.2064947    -1.6837822
C           0.8614400    -2.5893633    -1.8421877
H           1.6378634    -3.3415599    -1.9720435
H           0.4483077    -2.3319605    -2.8280376
H           0.0490492    -2.9910395    -1.2233847
C           3.2257521     0.5406506     0.7791822
O           2.0475694     0.5574329     1.4648458
C           2.0264242     1.3385387     2.6495792
H           1.0293892     1.2153272     3.0769500
H           2.2005027     2.4011992     2.4334186
H           2.7785181     0.9906592     3.3697786
C           3.4575446    -0.2467637    -0.3563920
N           4.7776103    -0.0155911    -0.7068669
H           5.2136212    -0.5852108    -1.4195935
C           5.3578985     0.8706159     0.1352226
H           6.3858643     1.1800583     0.0120985
C           4.4165130     1.2543059     1.0784065
H           4.5745242     1.9594394     1.8809582
O           3.5412204    -2.1383256    -1.7137815
24
280_C8H12N2O2_16-0-1-2 (30,) energy =    -572.0095859
C           2.7966147    -1.2968850    -1.1452774
N           1.4303282    -1.4504288    -1.1056367
C           0.4879030    -0.3621854    -0.8922067
H           1.0029211     0.5387152    -0.5707170
H          -0.2490823    -0.6284298    -0.1250649
H          -0.0496820    -0.1479321    -1.8279755
C           0.8744167    -2.6172749    -1.7756948
H           1.6085938    -3.4217374    -1.7670293
H           0.6117905    -2.3989857    -2.8217003
H          -0.0333676    -2.9331830    -1.2491327
C           3.2268690     0.5415301     0.7788231
O           2.0485463     0.5464938     1.4632476
C           2.0246194     1.3107369     2.6592307
H           1.0279864     1.1779749     3.0845127
H           2.1953609     2.3768223     2.4579668
H           2.7778870     0.9547791     3.3741155
C           3.4568677    -0.2312421    -0.3669086
N           4.7710410     0.0164074    -0.7266499
H           5.2010281    -0.5289531    -1.4616508
C           5.3511567     0.8955336     0.1227471
H           6.3768663     1.2117640    -0.0018594
C           4.4145434     1.2588474     1.0794838
H           4.5746681     1.9527072     1.8914177
O           3.5134302    -2.0641521    -1.8050411
24
280_C8H12N2O2_16-0-1-2 (45,) energy =    -572.0088995
C           2.7561230    -1.2387366    -1.1298025
N           1.3985213    -1.4456038    -0.9603368
C           0.4597588    -0.3303031    -0.8767789
H           0.9199841     0.5302463    -0.3981029
H          -0.4100347    -0.6245231    -0.2789895
H           0.1075253    -0.0428146    -1.8799450
C           0.8529107    -2.6138879    -1.6437958
H           1.5589051    -3.4408627    -1.5727272
H           0.6607540    -2.4184954    -2.7095715
H          -0.0911733    -2.8896098    -1.1622419
C           3.2441030     0.5331826     0.8332319
O           2.0732851     0.5358928     1.5286434
C           2.0678031     1.2769271     2.7398869
H           1.0738581     1.1454229     3.1715925
H           2.2476934     2.3448342     2.5575104
H           2.8239596     0.8990488     3.4401601
C           3.4507032    -0.2141854    -0.3332860
N           4.7575428     0.0393348    -0.7146566
H           5.1686820    -0.4815163    -1.4776714
C           5.3579134     0.8924616     0.1470868
H           6.3832822     1.2058991     0.0128607
C           4.4410822     1.2355807     1.1306581
H           4.6201408     1.9080895     1.9564877
O           3.4323924    -1.9577825    -1.8779607
24
280_C8H12N2O2_16-0-1-2 (60,) energy =    -572.0066502
C           2.7358647    -1.1595626    -1.1765362
N           1.3945376    -1.4170005    -0.8890338
C           0.4458945    -0.3024996    -0.9500780
H           0.8669779     0.5856188    -0.4814419
H          -0.4650336    -0.5713206    -0.4049493
H           0.1717878    -0.0703813    -1.9915667
C           0.8722344    -2.6229841    -1.5307673
H           1.5792176    -3.4429949    -1.4010438
H           0.7022340    -2.4870817    -2.6092862
H          -0.0785134    -2.8810825    -1.0530341
C           3.2513507     0.5272670     0.8360215
O           2.0726200     0.5260620     1.5140638
C           2.0591141     1.2348385     2.7445600
H           1.0578093     1.1041329     3.1590085
H           2.2541390     2.3048929     2.5927796
H           2.8009143     0.8294951     3.4448544
C           3.4605397    -0.1913960    -0.3479410
N           4.7677487     0.0689264    -0.7228135
H           5.1741043    -0.4139898    -1.5126457
C           5.3698626     0.8922035     0.1663775
H           6.3989440     1.1998897     0.0479075
C           4.4520027     1.2117951     1.1578835
H           4.6340788     1.8576652     2.0040733
O           3.3655550    -1.8216103    -2.0097119
24
280_C8H12N2O2_16-0-1-2 (75,) energy =    -572.0025181
C           2.6957826    -1.0622205    -1.2257836
N           1.3773662    -1.3648972    -0.8270658
C           0.3982700    -0.2900583    -1.0323443
H           0.7683518     0.6439881    -0.6060962
H          -0.5328382    -0.5494444    -0.5181082
H           0.1776781    -0.1405269    -2.1015866
C           0.8906988    -2.6262195    -1.3938302
H           1.6255554    -3.4144604    -1.2212401
H           0.7031864    -2.5657076    -2.4761271
H          -0.0433782    -2.8879849    -0.8860169
C           3.2674393     0.5088272     0.8441447
O           2.0849160     0.5108796     1.5108719
C           2.0745631     1.1834695     2.7616793
H           1.0668171     1.0619434     3.1629489
H           2.2934048     2.2531235     2.6428615
H           2.8007699     0.7423886     3.4567940
C           3.4662908    -0.1707075    -0.3649236
N           4.7739192     0.0894938    -0.7391269
H           5.1688364    -0.3509524    -1.5587361
C           5.3896890     0.8668515     0.1815384
H           6.4239042     1.1613257     0.0741887
C           4.4796752     1.1604486     1.1891690
H           4.6751056     1.7699240     2.0590367
O           3.2602078    -1.6517695    -2.1516218
24
280_C8H12N2O2_16-0-1-2 (90,) energy =    -571.9970417
C           2.6522681    -0.9607020    -1.2652421
N           1.3426843    -1.2858667    -0.7998158
C           0.3413037    -0.2871410    -1.2004015
H           0.6479821     0.7049590    -0.8572966
H          -0.6146480    -0.5285902    -0.7243292
H           0.1947722    -0.2614804    -2.2927881
C           0.9291299    -2.6205429    -1.2532227
H           1.6871615    -3.3549656    -0.9707016
H           0.7787646    -2.6824622    -2.3409974
H          -0.0097997    -2.8723837    -0.7490097
C           3.2832722     0.4897105     0.8588236
O           2.1041743     0.4943102     1.5254929
C           2.1054692     1.1371173     2.7920420
H           1.0953577     1.0241164     3.1896498
H           2.3435850     2.2051894     2.6984465
H           2.8227883     0.6668879     3.4773552
C           3.4651705    -0.1491334    -0.3768496
N           4.7741330     0.1075881    -0.7529168
H           5.1539246    -0.2876293    -1.6019462
C           5.4067344     0.8383687     0.1932004
H           6.4453196     1.1195584     0.0914904
C           4.5087305     1.1066569     1.2194078
H           4.7213551     1.6788042     2.1102766
O           3.1506008    -1.4695739    -2.2705282
24
280_C8H12N2O2_16-0-1-2 (105,) energy =    -571.9922898
C           2.6011069    -0.8535673    -1.2915351
N           1.2737029    -1.1566634    -0.8179783
C           0.2816472    -0.2957791    -1.4758645
H           0.5257554     0.7553260    -1.2901245
H          -0.7044969    -0.4960552    -1.0438052
H           0.2326375    -0.4611197    -2.5651699
C           0.9521287    -2.5711916    -1.0527485
H           1.7039963    -3.2012848    -0.5682673
H           0.9087805    -2.8375286    -2.1196410
H          -0.0195402    -2.7812730    -0.5931758
C           3.2909515     0.4665591     0.8943067
O           2.1379407     0.4374329     1.5981241
C           2.1752731     1.0396235     2.8840557
H           1.1767890     0.9117178     3.3056133
H           2.4093541     2.1105788     2.8179306
H           2.9118921     0.5492788     3.5341273
C           3.4401650    -0.1070585    -0.3811484
N           4.7450707     0.1601041    -0.7718059
H           5.0994246    -0.1741935    -1.6571605
C           5.4000424     0.8413268     0.1934235
H           6.4358064     1.1289100     0.0800747
C           4.5283440     1.0588678     1.2543106
H           4.7664203     1.5830219     2.1678637
O           3.0468937    -1.2779121    -2.3571545
24
280_C8H12N2O2_16-0-1-2 (120,) energy =    -571.9973765
C           2.6941474    -0.6009843    -1.6018732
N           1.4149227    -1.1280053    -1.4306639
C           0.3100181    -0.4373146    -2.0805530
H           0.6880138     0.0984872    -2.9524593
H          -0.1718044     0.2732688    -1.3901459
H          -0.4477670    -1.1559582    -2.4171758
C           1.0389219    -1.8935418    -0.2519209
H           1.9327753    -2.2879707     0.2352384
H           0.4179834    -2.7422485    -0.5690536
H           0.4767835    -1.3035081     0.4823692
C           3.3050781     0.2326831     0.8784394
O           2.1098404     0.1610220     1.5220985
C           2.0853669     0.6515207     2.8543521
H           1.0589694     0.5274522     3.2046256
H           2.3587809     1.7140673     2.8925279
H           2.7632510     0.0814083     3.5032799
C           3.4988549    -0.1544965    -0.4563161
N           4.8303833     0.1161334    -0.7333569
H           5.1751019     0.0242350    -1.6794739
C           5.4536292     0.6460135     0.3429294
H           6.4956320     0.9313413     0.3143109
C           4.5360829     0.7287510     1.3809378
H           4.7356070     1.1065788     2.3726443
O           3.1369313    -0.3906169    -2.7370622
24
280_C8H12N2O2_16-0-1-2 (135,) energy =    -572.0026227
C           2.6515133    -0.5062700    -1.5567517
N           1.3885180    -1.0401893    -1.3756586
C           0.3005337    -0.5415395    -2.2020599
H           0.7203886     0.0189121    -3.0373775
H          -0.3623587     0.1089263    -1.6114584
H          -0.3003114    -1.3686604    -2.6025971
C           0.9821152    -1.7897826    -0.2000480
H           1.8607619    -2.1164294     0.3568927
H           0.4268763    -2.6804007    -0.5249454
H           0.3420184    -1.2060788     0.4731563
C           3.3225770     0.2299130     0.9419153
O           2.1361558     0.1657964     1.6047585
C           2.1425033     0.6344186     2.9447039
H           1.1186638     0.5284444     3.3083779
H           2.4414453     1.6895274     2.9964716
H           2.8160630     0.0382374     3.5746525
C           3.4846898    -0.1221376    -0.4057251
N           4.8162562     0.1264709    -0.6995233
H           5.1403123     0.0625764    -1.6552544
C           5.4706622     0.6088996     0.3811877
H           6.5188454     0.8687708     0.3409616
C           4.5739989     0.6812552     1.4375973
H           4.7994949     1.0226680     2.4369707
O           3.0752106    -0.2454118    -2.6910274
24
280_C8H12N2O2_16-0-1-2 (150,) energy =    -572.0068121
C           2.5951131    -0.3974606    -1.5544161
N           1.3346008    -0.9169656    -1.3667675
C           0.3026458    -0.6159067    -2.3442859
H           0.7303943     0.0142177    -3.1232638
H          -0.5340740    -0.0957382    -1.8570392
H          -0.0887494    -1.5314927    -2.8095118
C           0.9202586    -1.6947698    -0.2137631
H           1.7863637    -1.9618246     0.3901176
H           0.4399032    -2.6197041    -0.5624933
H           0.2090030    -1.1515416     0.4206871
C           3.3213937     0.2326589     0.9585600
O           2.1396906     0.1876502     1.6333718
C           2.1737118     0.6298129     2.9816343
H           1.1505934     0.5490913     3.3538501
H           2.5064820     1.6737866     3.0505605
H           2.8340627     0.0008942     3.5936541
C           3.4558159    -0.0860258    -0.3994323
N           4.7903307     0.1272507    -0.7040480
H           5.0993660     0.0849148    -1.6659216
C           5.4743087     0.5546708     0.3822207
H           6.5306855     0.7774120     0.3356190
C           4.5936389     0.6256479     1.4518070
H           4.8427415     0.9277203     2.4582650
O           3.0120843    -0.1071181    -2.6853779
24
280_C8H12N2O2_16-0-1-2 (165,) energy =    -572.0092337
C           2.5392157    -0.2992405    -1.5752248
N           1.2713305    -0.7918762    -1.3845338
C           0.3258708    -0.6957182    -2.4849830
H           0.6875385     0.0414629    -3.2005765
H          -0.6546694    -0.3932103    -2.0968654
H           0.2088218    -1.6581022    -3.0047026
C           0.8621989    -1.6292878    -0.2698052
H           1.7038017    -1.8197463     0.3924697
H           0.4952884    -2.5913061    -0.6554263
H           0.0606155    -1.1620161     0.3150511
C           3.3304705     0.2060452     0.9480100
O           2.1592752     0.1722447     1.6430954
C           2.2297597     0.5710344     3.0034054
H           1.2111213     0.5096237     3.3912886
H           2.5956066     1.6018320     3.0980868
H           2.8808202    -0.0960924     3.5842122
C           3.4294703    -0.0649692    -0.4227468
N           4.7639739     0.1164904    -0.7454837
H           5.0527386     0.1020582    -1.7144853
C           5.4825818     0.4766729     0.3431965
H           6.5455829     0.6619578     0.2852154
C           4.6243828     0.5352473     1.4315425
H           4.9022419     0.7868428     2.4443627
O           2.9537510     0.0053476    -2.7037978
24
280_C8H12N2O2_16-0-1-2 (180,) energy =    -572.0093868
C           2.5910548    -0.5537330    -1.5148357
N           1.2687889    -0.9010304    -1.3557311
C           0.6149069    -1.5063237    -2.5092067
H           1.3379355    -2.1002215    -3.0662884
H           0.1990455    -0.7439410    -3.1850456
H          -0.2035221    -2.1446745    -2.1591113
C           0.3556833    -0.2418365    -0.4323561
H           0.8926108     0.2315858     0.3835482
H          -0.3324621    -0.9789748    -0.0017603
H          -0.2435511     0.5159959    -0.9605698
C           3.3824615     0.1296476     0.9809280
O           2.4010576    -0.3827068     1.7766176
C           2.6230833    -0.3003410     3.1766992
H           1.7592149    -0.7718708     3.6489193
H           2.6970162     0.7432082     3.5104219
H           3.5362840    -0.8364336     3.4655942
C           3.3643767     0.0676637    -0.4191234
N           4.5490070     0.6568037    -0.8307210
H           4.8153534     0.6122962    -1.8054061
C           5.2780686     1.0802525     0.2267624