19
242_C7H8N2O2_14-0-2-8 (-165,) energy =    -531.5279129
N           1.2802622    -0.9313842     0.2853573
H           1.6933854    -1.0494986     1.2027820
C           2.1435529    -0.5653583    -0.7223072
C           5.8116567     1.1643640     0.6904468
H           6.7230184     1.6011745     1.0830860
C           4.6203679     1.3204367     1.5101363
N           3.4763191     0.7127186     0.9428885
H           2.6176079     0.9072427     1.4465674
C           3.4302531     0.0642683    -0.2677155
C           4.5645495    -0.0376473    -1.0217893
H           4.5174833    -0.5509460    -1.9733360
C           5.7726591     0.5267823    -0.5164660
H           6.6797184     0.4415360    -1.1097099
O           1.9098219    -0.7598709    -1.9070003
C           0.1751943    -1.8346851    -0.0226712
H          -0.5059980    -1.8665210     0.8308310
H           0.5263220    -2.8495555    -0.2488589
H          -0.3573125    -1.4554043    -0.8957078
O           4.5334386     1.9087645     2.5819512
19
242_C7H8N2O2_14-0-2-8 (-150,) energy =    -531.5246368
N           1.1687867    -0.8628403     0.2848192
H           1.5874047    -0.9134751     1.2070094
C           2.0337769    -0.4655322    -0.7157249
C           5.7819181     1.0587537     0.7285727
H           6.7150648     1.4374498     1.1302187
C           4.5995189     1.2646176     1.5500089
N           3.4249434     0.7282426     0.9721142
H           2.5801097     0.9640550     1.4818226
C           3.3456305     0.1045125    -0.2505311
C           4.4733747    -0.0405084    -1.0073138
H           4.4009802    -0.5316664    -1.9687742
C           5.7096976     0.4472552    -0.4900287
H           6.6114538     0.3237871    -1.0846180
O           1.8076706    -0.6415242    -1.9039366
C           0.2463176    -1.9669304     0.0154800
H          -0.5233774    -1.9907856     0.7907447
H           0.7674938    -2.9326693    -0.0113007
H          -0.2243805    -1.7991590    -0.9533780
O           4.5421365     1.8385161     2.6314130
19
242_C7H8N2O2_14-0-2-8 (-135,) energy =    -531.5191793
N           1.0710726    -0.7497488     0.2492369
H           1.4655795    -0.7145353     1.1836435
C           1.9560960    -0.3311785    -0.7335293
C           5.7747345     0.9722876     0.7492711
H           6.7263500     1.2889716     1.1610527
C           4.6018760     1.2389955     1.5665788
N           3.4007526     0.7781506     0.9770969
H           2.5719589     1.0592389     1.4902265
C           3.2908351     0.1735472    -0.2533244
C           4.4127914    -0.0255806    -1.0068621
H           4.3175311    -0.4991613    -1.9749750
C           5.6730535     0.3807362    -0.4768520
H           6.5690898     0.2103122    -1.0684773
O           1.7439087    -0.4922820    -1.9253255
C           0.3566924    -2.0140573     0.0331284
H          -0.4511141    -2.1006212     0.7638713
H           1.0273729    -2.8781817     0.1268824
H          -0.0704308    -2.0062996    -0.9699271
O           4.5715732     1.8038354     2.6536844
19
242_C7H8N2O2_14-0-2-8 (-120,) energy =    -531.5133340
N           0.9237508    -0.5084061    -0.0903730
H           0.9692229     0.1968216     0.6375948
C           2.0826895    -0.6189869    -0.8540943
C           5.6898578     1.0527997     0.7899904
H           6.5855645     1.4681338     1.2379615
C           4.5974455     0.7525201     1.7010495
N           3.4588392     0.2310483     1.0446164
H           2.7248215    -0.0529904     1.6827373
C           3.3503328    -0.0236113    -0.3008129
C           4.4094280     0.2560533    -1.1201982
H           4.3169939     0.0551055    -2.1795493
C           5.5937026     0.8052370    -0.5499709
H           6.4337801     1.0327671    -1.2013796
O           2.1204680    -1.2720775    -1.8849999
C           0.2340159    -1.7270948     0.3481305
H          -0.7973003    -1.4877156     0.6206567
H           0.7306529    -2.2024660     1.2053527
H           0.2170047    -2.4298037    -0.4865276
O           4.5871935     0.8986154     2.9181940
19
242_C7H8N2O2_14-0-2-8 (-105,) energy =    -531.5104613
N           0.9547914    -0.4187639     0.2247787
H           0.1143077    -0.0152915    -0.1932807
C           1.9617446    -0.3023447    -0.8007550
C           5.7636074     0.8047054     0.7917118
H           6.7070371     1.0944861     1.2411776
C           4.6170549     0.7452258     1.6918972
N           3.4299396     0.3668763     1.0393936
H           2.5792441     0.3466982     1.5957463
C           3.3095905     0.0800214    -0.2942105
C           4.4058701     0.1448402    -1.1134055
H           4.2959291    -0.0916296    -2.1638826
C           5.6540013     0.5215379    -0.5404750
H           6.5313578     0.5813759    -1.1795906
O           1.7182549    -0.4064169    -1.9873776
C           0.6293779    -1.8339232     0.5300592
H           0.3251669    -2.3979688    -0.3616916
H          -0.1783750    -1.8539153     1.2658582
H           1.5030374    -2.3224231     0.9730011
O           4.6222217     0.9916268     2.8927574
19
242_C7H8N2O2_14-0-2-8 (-90,) energy =    -531.5143309
N           0.9059896    -0.4037946     0.1202380
H           0.0285368    -0.1490708    -0.3348594
C           1.9098220    -0.2121181    -0.8737328
C           5.7311455     0.7141950     0.7999021
H           6.6780784     0.9585140     1.2684191
C           4.5701234     0.6900734     1.6812804
N           3.3781613     0.3659954     1.0053899
H           2.5246718     0.3915108     1.5556250
C           3.2650408     0.1072724    -0.3352668
C           4.3752269     0.1423059    -1.1356449
H           4.2718917    -0.0690979    -2.1921197
C           5.6292328     0.4579814    -0.5382079
H           6.5176867     0.4918484    -1.1637993
O           1.6624929    -0.1676601    -2.0652698
C           0.7649912    -1.8019074     0.5924885
H           0.5239647    -2.4967113    -0.2228429
H          -0.0275436    -1.8387274     1.3439670
H           1.6964284    -2.1274268     1.0653612
O           4.5624882     0.9227984     2.8849013
19
242_C7H8N2O2_14-0-2-8 (-75,) energy =    -531.5181585
N           0.8608412    -0.4272860     0.0327750
H          -0.0310200    -0.2822360    -0.4391864
C           1.8615322    -0.1218536    -0.9116942
C           5.6953620     0.6277675     0.8383250
H           6.6450583     0.8269737     1.3222618
C           4.5221342     0.6384586     1.7019240
N           3.3267078     0.3675788     1.0054110
H           2.4739372     0.4285970     1.5526567
C           3.2213488     0.1320395    -0.3409007
C           4.3429958     0.1397340    -1.1241122
H           4.2472335    -0.0474013    -2.1858701
C           5.6003843     0.3956362    -0.5044551
H           6.4978036     0.4033550    -1.1180248
O           1.6189955     0.0727548    -2.0909829
C           0.8732765    -1.7767427     0.6370568
H           0.6919276    -2.5657501    -0.1044251
H           0.0991698    -1.8253528     1.4071042
H           1.8390267    -1.9634433     1.1137800
O           4.5024948     0.8569826     2.9081157
19
242_C7H8N2O2_14-0-2-8 (-60,) energy =    -531.5207589
N           0.8373899    -0.4614873    -0.0670709
H          -0.0521166    -0.4007354    -0.5580008
C           1.8329214    -0.0259341    -0.9427716
C           5.6683575     0.6130076     0.8620373
H           6.6179691     0.7854351     1.3562007
C           4.4856770     0.6722905     1.7088105
N           3.2900956     0.4261376     0.9999188
H           2.4390760     0.5230437     1.5439794
C           3.1930679     0.1818913    -0.3461598
C           4.3240592     0.1535806    -1.1139589
H           4.2364194    -0.0312392    -2.1768041
C           5.5815924     0.3720914    -0.4796574
H           6.4861876     0.3450340    -1.0820885
O           1.5965015     0.2942294    -2.0974658
C           0.9644047    -1.7354535     0.6616765
H           0.8429353    -2.6023032    -0.0009048
H           0.2010663    -1.7776794     1.4432569
H           1.9440400    -1.8012814     1.1386608
O           4.4534662     0.9085496     2.9113793
19
242_C7H8N2O2_14-0-2-8 (-45,) energy =    -531.5218336
N           0.8290162    -0.5262608    -0.1704145
H          -0.0547305    -0.5112446    -0.6716059
C           1.8119457     0.0424946    -0.9615474
C           5.6532103     0.5876746     0.8745213
H           6.6042748     0.7376897     1.3730857
C           4.4684959     0.6780478     1.7137979
N           3.2700503     0.4571839     0.9983651
H           2.4240427     0.5742602     1.5458199
C           3.1732673     0.2099126    -0.3476346
C           4.3075395     0.1572511    -1.1084205
H           4.2231750    -0.0217337    -2.1725032
C           5.5665026     0.3452068    -0.4668766
H           6.4731622     0.2948951    -1.0647320
O           1.5768058     0.4773614    -2.0800633
C           1.0103025    -1.7159199     0.6687792
H           0.8839581    -2.6410753     0.0915520
H           0.2779642    -1.7067067     1.4815232
H           2.0083314    -1.7221815     1.1076730
O           4.4319603     0.9179421     2.9155691
19
242_C7H8N2O2_14-0-2-8 (-30,) energy =    -531.5218194
N           0.8334728    -0.6203333    -0.2570115
H          -0.0465599    -0.6251114    -0.7608460
C           1.8027542     0.0410386    -0.9743576
C           5.6276196     0.5872468     0.9050975
H           6.5746340     0.7371263     1.4113041
C           4.4386613     0.6386575     1.7400964
N           3.2461209     0.4193674     1.0131416
H           2.4016872     0.5049055     1.5680487
C           3.1569941     0.2045986    -0.3389787
C           4.2959112     0.1893801    -1.0946761
H           4.2185691     0.0410070    -2.1639055
C           5.5490286     0.3778004    -0.4425366
H           6.4586834     0.3553872    -1.0375718
O           1.5736501     0.5299154    -2.0730275
C           1.0110073    -1.6831525     0.7314371
H           0.5688851    -2.6160018     0.3643060
H           0.5348745    -1.4281951     1.6858238
H           2.0715249    -1.8630449     0.9096812
O           4.3907357     0.8452006     2.9478800
19
242_C7H8N2O2_14-0-2-8 (-15,) energy =    -531.5214133
N           0.8653471    -0.7266248    -0.3397101
H          -0.0090629    -0.7481598    -0.8505586
C           1.8097819     0.0283053    -0.9853406
C           5.6214234     0.5929145     0.9234437
H           6.5658920     0.7440691     1.4339717
C           4.4314602     0.6062433     1.7570268
N           3.2425337     0.3873204     1.0229499
H           2.4011974     0.4438673     1.5853854
C           3.1565903     0.2013760    -0.3334861
C           4.2971748     0.2223658    -1.0871020
H           4.2241874     0.0997659    -2.1598293
C           5.5463167     0.4136135    -0.4288443
H           6.4566272     0.4185580    -1.0232975
O           1.5808761     0.5537096    -2.0680773
C           1.0138179    -1.6591955     0.7718316
H           0.4216477    -2.5558206     0.5662497
H           0.6681845    -1.2365343     1.7247904
H           2.0557246    -1.9646802     0.8821037
O           4.3768650     0.7817970     2.9695975
19
242_C7H8N2O2_14-0-2-8 (0,) energy =    -531.5205435
N           1.4383605    -1.7269437    -0.3578921
H           0.9907605    -2.5995066    -0.6114963
C           2.7758946    -1.7423732    -0.6520098
C           5.1961770     1.6543949     0.4082653
H           5.7944732     2.5084867     0.7049278
C           4.2174351     1.1892304     1.3750857
N           3.4648126     0.0850457     0.9100924
H           2.8124482    -0.2738425     1.5972821
C           3.6147446    -0.5392347    -0.3023834
C           4.5684988    -0.0891508    -1.1728423
H           4.7042049    -0.5995138    -2.1172811
C           5.3578190     1.0365854    -0.7995640
H           6.1067239     1.4052435    -1.4962288
O           3.2865443    -2.6890075    -1.2392763
C           0.6117876    -0.7054682     0.2694943
H           0.5468340    -0.8185891     1.3609850
H          -0.4014419    -0.7791480    -0.1351549
H           0.9900643     0.2925659     0.0402046
O           4.0020169     1.6453687     2.4931631
19
242_C7H8N2O2_14-0-2-8 (15,) energy =    -531.5214133
N           1.4609822    -1.7678101    -0.2399341
H           1.0031079    -2.6357491    -0.4910434
C           2.7715049    -1.7528667    -0.6412099
C           5.1851175     1.6484222     0.4059573
H           5.7824472     2.5031811     0.7027601
C           4.2303801     1.1605217     1.3865082
N           3.4792982     0.0560191     0.9214360
H           2.8449222    -0.3249016     1.6141441
C           3.6104780    -0.5485018    -0.3029930
C           4.5393838    -0.0763926    -1.1881806
H           4.6576705    -0.5702771    -2.1437893
C           5.3271257     1.0504745    -0.8141923
H           6.0582452     1.4364043    -1.5202991
O           3.2628379    -2.6869848    -1.2631276
C           0.6149604    -0.6771124     0.2311097
H           0.4735223    -0.6943981     1.3201146
H          -0.3697086    -0.7617503    -0.2380696
H           1.0380097     0.2884359    -0.0513721
O           4.0352205     1.6001207     2.5146894
19
242_C7H8N2O2_14-0-2-8 (30,) energy =    -531.5218194
N           1.4981094    -1.8052186    -0.1119683
H           1.0471317    -2.6823078    -0.3478986
C           2.7736305    -1.7591949    -0.6242496
C           5.1893403     1.6471953     0.3862656
H           5.7884083     2.5024304     0.6782171
C           4.2626028     1.1417997     1.3858761
N           3.5072367     0.0381620     0.9274982
H           2.8937294    -0.3629250     1.6282442
C           3.6143840    -0.5523721    -0.3062310
C           4.5163825    -0.0644928    -1.2100090
H           4.6122945    -0.5471435    -2.1739059
C           5.3060812     1.0638275    -0.8434564
H           6.0170248     1.4625777    -1.5628997
O           3.2420584    -2.6827849    -1.2770295
C           0.6053135    -0.6861612     0.1859570
H           0.2575232    -0.7150873     1.2255553
H          -0.2706944    -0.7185143    -0.4713318
H           1.1155446     0.2624676     0.0168486
O           4.0954078     1.5686691     2.5232092
19
242_C7H8N2O2_14-0-2-8 (45,) energy =    -531.5218336
N           1.5431009    -1.8146765     0.0074135
H           1.1034953    -2.7030672    -0.2160488
C           2.7775818    -1.7471996    -0.6147023
C           5.2133996     1.6514246     0.3547439
H           5.8169878     2.5059845     0.6393546
C           4.3167074     1.1318038     1.3755465
N           3.5536599     0.0300109     0.9275422
H           2.9638338    -0.3913567     1.6372583
C           3.6307941    -0.5471400    -0.3147026
C           4.5037864    -0.0464619    -1.2395528
H           4.5716992    -0.5166594    -2.2120377
C           5.2994262     1.0814144    -0.8835390
H           5.9888269     1.4904955    -1.6179592
O           3.2075615    -2.6576855    -1.3086838
C           0.5959063    -0.6996998     0.1171816
H          -0.0620318    -0.8604061     0.9763952
H          -0.0212132    -0.6029575    -0.7855205
H           1.1302868     0.2388687     0.2663633
O           4.1825224     1.5476523     2.5210606
19
242_C7H8N2O2_14-0-2-8 (60,) energy =    -531.5207589
N           1.5710774    -1.7923891     0.1243121
H           1.1585803    -2.7028881    -0.0674235
C           2.7368923    -1.6891279    -0.6358555
C           5.2445390     1.6441086     0.3527756
H           5.8645292     2.4844304     0.6446018
C           4.3247727     1.1449017     1.3647514
N           3.5436311     0.0608091     0.9096747
H           2.9367134    -0.3558059     1.6080371
C           3.6228289    -0.5180580    -0.3311471
C           4.5130788    -0.0351389    -1.2496801
H           4.5743474    -0.5042618    -2.2231527
C           5.3317305     1.0731486    -0.8850112
H           6.0377954     1.4670455    -1.6118300
O           3.0912339    -2.5605546    -1.4148133
C           0.5538159    -0.7269202     0.1120542
H          -0.1540943    -0.8993540     0.9272021
H           0.0024654    -0.6954264    -0.8367441
H           1.0240029     0.2455381     0.2694762
O           4.1905417     1.5660886     2.5082598
19
242_C7H8N2O2_14-0-2-8 (75,) energy =    -531.5181585
N           1.5873425    -1.7455338     0.2204154
H           1.2301167    -2.6907120     0.0853904
C           2.6781883    -1.6061061    -0.6612359
C           5.2782681     1.6454744     0.3335378
H           5.9202136     2.4678010     0.6293185
C           4.3252699     1.1851811     1.3346901
N           3.5233165     0.1192378     0.8784155
H           2.8884298    -0.2793533     1.5628588
C           3.6035300    -0.4701874    -0.3566065
C           4.5175907    -0.0191943    -1.2691137
H           4.5716850    -0.4926225    -2.2409468
C           5.3668081     1.0636042    -0.8991627
H           6.0961768     1.4297712    -1.6173767
O           2.9431364    -2.4312392    -1.5193596
C           0.4708942    -0.7846317     0.0917402
H          -0.2458663    -0.9671547     0.8964247
H          -0.0437198    -0.8724618    -0.8740102
H           0.8443135     0.2375064     0.1946343
O           4.1853831     1.6260927     2.4700603
19
242_C7H8N2O2_14-0-2-8 (90,) energy =    -531.5143309
N           1.6127670    -1.6832745     0.2960256
H           1.3405636    -2.6644328     0.2242275
C           2.6346747    -1.5082511    -0.6824781
C           5.3732725     1.6108326     0.3338985
H           6.0498883     2.4015544     0.6385814
C           4.3986150     1.1850434     1.3309582
N           3.5553252     0.1576631     0.8662216
H           2.8934493    -0.2224451     1.5365142
C           3.6123415    -0.4232949    -0.3732666
C           4.5429652    -0.0022677    -1.2848700
H           4.5732813    -0.4667335    -2.2620400
C           5.4387305     1.0380218    -0.9047187
H           6.1841826     1.3790446    -1.6187679
O           2.7902754    -2.2681312    -1.6212428
C           0.3934041    -0.8722210     0.0658815
H          -0.3222552    -1.0827553     0.8644391
H          -0.0736501    -1.0849640    -0.9047947
H           0.6447019     0.1918687     0.1072234
O           4.2773979     1.6264888     2.4682158
19
242_C7H8N2O2_14-0-2-8 (105,) energy =    -531.5104613
N           1.6085278    -1.5912809     0.3671152
H           1.4595066    -2.6018642     0.3892585
C           2.5852164    -1.3913914    -0.6746862
C           5.4619400     1.5858602     0.3626730
H           6.1738712     2.3425642     0.6734859
C           4.4664400     1.1969915     1.3557564
N           3.5812646     0.2110108     0.8841013
H           2.8865181    -0.1415237     1.5372973
C           3.6114913    -0.3579889    -0.3611280
C           4.5592730     0.0292899    -1.2715322
H           4.5656828    -0.4247733    -2.2540253
C           5.5014357     1.0235553    -0.8819845
H           6.2618268     1.3372513    -1.5927615
O           2.6341379    -2.0724869    -1.6806220
C           0.2975566    -0.9847547     0.0276364
H          -0.4119522    -1.2220997     0.8242099
H          -0.0970163    -1.3443141    -0.9320202
H           0.4002294     0.1039140    -0.0210471
O           4.3640709     1.6397356     2.4943098
19
242_C7H8N2O2_14-0-2-8 (120,) energy =    -531.5133340
N           1.6013378    -1.7163183     0.0627400
H           1.9717169    -1.6944596     1.0070312
C           2.4480187    -1.1693577    -0.8977144
C           5.5993620     1.4072729     0.4949477
H           6.3726333     2.0655332     0.8747044
C           4.4620928     1.1813874     1.3719522
N           3.5043600     0.3009134     0.8180866
H           2.6741604     0.2021308     1.3905116
C           3.5669976    -0.2792059    -0.4254414
C           4.6461859    -0.0247879    -1.2266450
H           4.6907907    -0.4864222    -2.2044271
C           5.6738132     0.8352085    -0.7432880
H           6.5343144     1.0335332    -1.3773516
O           2.2408724    -1.2979700    -2.0940914
C           0.1668440    -1.4115283     0.0128809
H          -0.0616846    -0.4123632     0.4089728
H          -0.3876749    -2.1586287     0.5869276
H          -0.1580695    -1.4636282    -1.0275356
O           4.2742496     1.6687354     2.4810518
19
242_C7H8N2O2_14-0-2-8 (135,) energy =    -531.5191240
N           1.6051104    -1.5934803     0.0873107
H           1.9603915    -1.5542763     1.0346778
C           2.4093999    -1.0446859    -0.8926826
C           5.6996066     1.3697275     0.4678281
H           6.5095663     1.9871169     0.8396882
C           4.5521522     1.2183226     1.3471798
N           3.5457101     0.3866199     0.8033856
H           2.7066786     0.3512065     1.3706340
C           3.5744526    -0.2081145    -0.4344065
C           4.6631337    -0.0213627    -1.2402945
H           4.6801306    -0.4930698    -2.2141547
C           5.7386349     0.7833828    -0.7652969
H           6.6077762     0.9272403    -1.4022845
O           2.1584566    -1.1430436    -2.0853763
C           0.1480900    -1.5403635    -0.0235014
H          -0.2600052    -0.6234284     0.4219145
H          -0.3012531    -2.4071901     0.4694260
H          -0.1092977    -1.5693706    -1.0830821
O           4.3918720     1.7288953     2.4502439
19
242_C7H8N2O2_14-0-2-8 (150,) energy =    -531.5237597
N           1.5680807    -1.4522378     0.1043295
H           1.9159705    -1.4229787     1.0530028
C           2.3534091    -0.9303370    -0.8942026
C           5.7748615     1.3097742     0.4365137
H           6.6197744     1.8824664     0.8020947
C           4.6179526     1.2414147     1.3136919
N           3.5639998     0.4646842     0.7778707
H           2.7176859     0.4981517     1.3346816
C           3.5608682    -0.1479156    -0.4515605
C           4.6593842    -0.0382676    -1.2573035
H           4.6509297    -0.5240326    -2.2243443
C           5.7805884     0.7061566    -0.7887953
H           6.6581598     0.7892737    -1.4250747
O           2.0799526    -1.0280243    -2.0833508
C           0.1335282    -1.6467651    -0.0662700
H          -0.4364196    -0.8692453     0.4574214
H          -0.1751564    -2.6277600     0.3087680
H          -0.0813706    -1.5962040    -1.1342590
O           4.4855364     1.7775652     2.4083170
19
242_C7H8N2O2_14-0-2-8 (165,) energy =    -531.5269364
N           1.4761173    -1.2844256     0.2190507
H           1.8443774    -1.3553449     1.1571812
C           2.2961844    -0.8465089    -0.7871891
C           5.7839608     1.2694342     0.5636425
H           6.6461367     1.8106112     0.9368813
C           4.6061798     1.2733079     1.4159875
N           3.5283968     0.5377975     0.8709627
H           2.6685049     0.6193066     1.4018030
C           3.5257332    -0.1018329    -0.3442760
C           4.6450072    -0.0625523    -1.1270901
H           4.6345249    -0.5698991    -2.0829657
C           5.7891456     0.6400358    -0.6486166
H           6.6834612     0.6692395    -1.2661363
O           2.0375053    -0.9841748    -1.9762006
C           0.1139155    -1.7279910    -0.0332210
H          -0.5637624    -1.2928623     0.7081855
H           0.0236767    -2.8206010    -0.0001711
H          -0.1665829    -1.3898615    -1.0313834
O           4.4773163     1.8364711     2.4974550
19
242_C7H8N2O2_14-0-2-8 (180,) energy =    -531.5286133
N           1.3738166    -1.1379890     0.2274327
H           1.7693492    -1.2525583     1.1515253
C           2.2191076    -0.7956842    -0.7983073
C           5.7994380     1.1951861     0.4889789
H           6.6866860     1.7043024     0.8483664
C           4.6173022     1.2957800     1.3302236
N           3.5060650     0.5966532     0.8057946
H           2.6456446     0.7452933     1.3215942
C           3.4784550    -0.0877645    -0.3847650
C           4.6023916    -0.1387483    -1.1597063
H           4.5707777    -0.6819127    -2.0952400
C           5.7793414     0.5202424    -0.6981823
H           6.6780223     0.4781685    -1.3085715
O           1.9651232    -1.0128056    -1.9757454
C           0.1224411    -1.8283235    -0.0549459
H          -0.5429733    -1.7270371     0.8059658
H           0.2757260    -2.8932452    -0.2713105
H          -0.3400225    -1.3675033    -0.9290000
O           4.5126708     1.9087139     2.3868124
