19
209_C5H8N2O3S_15-0-1-2 (-165,) energy =    -928.5945423
S           2.5033835    -1.8043873     0.1704243
N           3.8183397    -0.7447306     0.4021563
C           5.0743900    -1.3256279    -0.1153759
H           4.9267629    -1.6534072    -1.1450507
H           5.4286894    -2.1683351     0.4946776
H           5.8282326    -0.5335201    -0.1012258
C           3.9612289    -0.2992586     1.8023293
H           3.0147967     0.0989660     2.1714271
H           4.7055218     0.5023411     1.8121660
H           4.2888963    -1.1100432     2.4663701
O           2.4271229    -2.8168590     1.2244946
O           2.4873911    -2.1768248    -1.2411564
C          -0.4349764     0.5139172     1.2244009
H          -1.0907337     0.9519401     1.9627260
N           0.5713190    -0.3725574     1.5795953
C           1.1275399    -0.6799519     0.4508575
O           0.5891898    -0.0780047    -0.6360254
C          -0.4204700     0.6860576    -0.1237074
H          -1.0026754     1.2517662    -0.8333820
19
209_C5H8N2O3S_15-0-1-2 (-150,) energy =    -928.5961087
S           2.4675295    -1.8515416     0.2763290
N           3.7766053    -0.7979470     0.4983006
C           4.9970395    -1.1897931    -0.2255453
H           4.7442452    -1.4451310    -1.2545212
H           5.5130308    -2.0380266     0.2466052
H           5.6670579    -0.3249302    -0.2270768
C           4.0098543    -0.4294509     1.9045658
H           3.0711829    -0.1220606     2.3701572
H           4.6975785     0.4214753     1.9111977
H           4.4433807    -1.2536301     2.4858677
O           2.3419110    -2.8042108     1.3783803
O           2.4870126    -2.2894482    -1.1166843
C          -0.4033959     0.6236215     1.1308659
H          -1.0420294     1.1413481     1.8316941
N           0.5623209    -0.2785451     1.5547018
C           1.1064416    -0.6905194     0.4536677
O           0.5998197    -0.1448057    -0.6764082
C          -0.3777136     0.6978365    -0.2255020
H          -0.9335987     1.2342868    -0.9776780
19
209_C5H8N2O3S_15-0-1-2 (-135,) energy =    -928.5961989
S           2.4443689    -1.9008175     0.3880383
N           3.7614181    -0.8747690     0.6011487
C           4.9091941    -1.0715170    -0.2918362
H           4.5551828    -1.2808571    -1.3007053
H           5.5624062    -1.8914844     0.0390339
H           5.4862469    -0.1415472    -0.2998304
C           4.0803955    -0.5463520     1.9961323
H           3.1635318    -0.3106792     2.5405067
H           4.7192957     0.3420352     1.9905604
H           4.6002308    -1.3650567     2.5103057
O           2.2747169    -2.7846597     1.5380695
O           2.4897195    -2.4059532    -0.9817890
C          -0.3942322     0.6669968     1.0409846
H          -1.0396881     1.2297606     1.6996563
N           0.5291185    -0.2463899     1.5308963
C           1.0946669    -0.7169866     0.4649465
O           0.6437136    -0.1998473    -0.7016930
C          -0.3217370     0.6890417    -0.3153051
H          -0.8364380     1.2120090    -1.1052983
19
209_C5H8N2O3S_15-0-1-2 (-120,) energy =    -928.5956273
S           2.4467567    -1.9692655     0.4618712
N           3.7818221    -0.9863010     0.6789931
C           4.8377729    -0.9872664    -0.3353142
H           4.4066309    -1.1900326    -1.3149394
H           5.6089467    -1.7412279    -0.1238087
H           5.3045177     0.0034002    -0.3453992
C           4.1834752    -0.6987792     2.0585817
H           3.2999710    -0.5783469     2.6875619
H           4.7423457     0.2424951     2.0583454
H           4.8136249    -1.4928265     2.4800209
O           2.2286360    -2.7831739     1.6525891
O           2.5162064    -2.5370437    -0.8821199
C          -0.3773820     0.6599126     0.8955307
H          -1.0527136     1.2445192     1.5033410
N           0.4862961    -0.2714974     1.4556468
C           1.1107997    -0.7672510     0.4353433
O           0.7557069    -0.2489605    -0.7646624
C          -0.2104640     0.6685472    -0.4524305
H          -0.6549177     1.1980606    -1.2798591
19
209_C5H8N2O3S_15-0-1-2 (-105,) energy =    -928.5967281
S           2.7917496    -2.4687412    -0.9768251
N           4.2135325    -1.9487927    -0.3314593
C           5.3752221    -1.6640719    -1.1695483
H           5.1815910    -2.0028583    -2.1862146
H           6.2425399    -2.2047282    -0.7728963
H           5.5951982    -0.5885354    -1.1801721
C           4.2814404    -1.5940966     1.0838981
H           3.4326568    -2.0276145     1.6148321
H           4.2791421    -0.5051175     1.2152363
H           5.1995322    -2.0124889     1.5117047
O           2.1579027    -3.4285070    -0.0755071
O           3.0159926    -2.7788353    -2.3867101
C           0.9538104     0.9520804    -0.7419344
H           0.9459462     2.0245262    -0.6122428
N           2.1353991     0.2214132    -0.6969129
C           1.7499018    -1.0014748    -0.8826564
O           0.4178676    -1.1636601    -1.0528948
C          -0.0851556     0.1065549    -0.9623469
H          -1.1530031     0.2096570    -1.0699122
19
209_C5H8N2O3S_15-0-1-2 (-90,) energy =    -928.5987237
S           2.8171641    -2.5043521    -0.8407726
N           4.2600407    -2.0175629    -0.2020445
C           5.3155993    -1.5113655    -1.0813799
H           5.1881956    -1.9310545    -2.0782610
H           6.2797712    -1.8407110    -0.6796947
H           5.3014631    -0.4149165    -1.1371015
C           4.3114948    -1.6176530     1.2047708
H           3.5466563    -2.1568197     1.7651018
H           4.1647732    -0.5362078     1.3196524
H           5.2917382    -1.8966270     1.6053505
O           2.1637937    -3.4098721     0.1001417
O           3.0360517    -2.8744054    -2.2363573
C           1.0888598     0.9808369    -0.7666518
H           1.1159992     2.0561514    -0.6673303
N           2.2400832     0.2085406    -0.6587327
C           1.8160347    -1.0047594    -0.8245781
O           0.4861844    -1.1232900    -1.0380539
C           0.0279609     0.1669252    -0.9993727
H          -1.0309827     0.3052496    -1.1472796
19
209_C5H8N2O3S_15-0-1-2 (-75,) energy =    -928.5996786
S           2.7802723    -2.5363908    -0.7402291
N           4.2748486    -2.0740595    -0.1957727
C           5.1757550    -1.3902326    -1.1309796
H           5.0157336    -1.7790475    -2.1364805
H           6.2040845    -1.6140260    -0.8296594
H           5.0203408    -0.3040983    -1.1205062
C           4.4150079    -1.7044900     1.2175456
H           3.7403991    -2.3135814     1.8191338
H           4.2043307    -0.6399063     1.3797704
H           5.4443624    -1.9216913     1.5201719
O           2.1477303    -3.3530876     0.2912428
O           2.9182438    -3.0052657    -2.1162726
C           1.1630619     1.0059503    -0.7641461
H           1.2060776     2.0746972    -0.6133768
N           2.2672015     0.1912983    -0.5355860
C           1.8383398    -0.9988710    -0.8166533
O           0.5482868    -1.0636359    -1.2152717
C           0.1230737     0.2382849    -1.1765889
H          -0.9008439     0.4178611    -1.4623009
19
209_C5H8N2O3S_15-0-1-2 (-60,) energy =    -928.5988603
S           2.7308860    -2.5758166    -0.5620045
N           4.2841181    -2.1290387    -0.1590683
C           5.0114926    -1.3104291    -1.1378438
H           4.7727801    -1.6514608    -2.1463727
H           6.0825274    -1.4601707    -0.9696164
H           4.7726255    -0.2443562    -1.0346952
C           4.5526939    -1.7895718     1.2466339
H           3.9773877    -2.4502119     1.8938719
H           4.3066657    -0.7432233     1.4675343
H           5.6188646    -1.9587497     1.4277493
O           2.1464222    -3.2625320     0.5862378
O           2.7573207    -3.1817776    -1.8895040
C           1.1387375     0.9760421    -0.6918924
H           1.1218180     2.0240220    -0.4305641
N           2.1620066     0.1348696    -0.2700890
C           1.8468622    -1.0163983    -0.7755586
O           0.7022882    -1.0314401    -1.4949995
C           0.2542729     0.2611428    -1.4328831
H          -0.6645984     0.4763904    -1.9540506
19
209_C5H8N2O3S_15-0-1-2 (-45,) energy =    -928.5959317
S           2.6942019    -2.5649017    -0.4014368
N           4.3005651    -2.1547670    -0.1370581
C           4.8853626    -1.1992017    -1.0884287
H           4.5493026    -1.4357507    -2.1006182
H           5.9725035    -1.3204760    -1.0578832
H           4.6265163    -0.1623434    -0.8405729
C           4.6913220    -1.8976280     1.2601581
H           4.2118067    -2.6251886     1.9125938
H           4.4278934    -0.8813557     1.5823126
H           5.7764880    -2.0259632     1.3214913
O           2.1596731    -3.1189812     0.8389669
O           2.6121288    -3.2905848    -1.6649361
C           1.1251832     0.9848476    -0.7200942
H           1.0502274     2.0238238    -0.4338872
N           2.0636033     0.1360933    -0.1481817
C           1.8576028    -1.0002442    -0.7379498
O           0.8599730    -0.9975317    -1.6509806
C           0.3940407     0.2886826    -1.6288273
H          -0.4201521     0.5158805    -2.2980427
19
209_C5H8N2O3S_15-0-1-2 (-30,) energy =    -928.5914960
S           2.6303677    -2.5243335    -0.2464830
N           4.2838751    -2.1579454    -0.1558911
C           4.7481888    -1.0786746    -1.0370173
H           4.3154623    -1.1987281    -2.0339807
H           5.8341054    -1.1719308    -1.1339388
H           4.5033396    -0.0829551    -0.6444141
C           4.8326754    -2.0486060     1.2075223
H           4.4517252    -2.8592279     1.8257885
H           4.5931213    -1.0864653     1.6814196
H           5.9194842    -2.1466673     1.1231152
O           2.1800253    -2.9246688     1.0835372
O           2.4173065    -3.3715559    -1.4149405
C           1.0548720     0.9986705    -0.7616961
H           0.8848229     2.0211089    -0.4569384
N           1.8587805     0.1411954    -0.0248728
C           1.8207798    -0.9716925    -0.6891001
O           1.0637736    -0.9424699    -1.8105868
C           0.5726902     0.3329515    -1.8441316
H          -0.0751733     0.5759073    -2.6710513
19
209_C5H8N2O3S_15-0-1-2 (-15,) energy =    -928.5873646
S           2.4945749    -2.4442791    -0.1094387
N           4.1759262    -2.1468250    -0.1955640
C           4.5951505    -0.9724739    -0.9698017
H           4.0906184    -0.9594945    -1.9395789
H           5.6681805    -1.0701937    -1.1600386
H           4.4079934    -0.0247121    -0.4457742
C           4.8687406    -2.2479198     1.1005912
H           4.5569974    -3.1511417     1.6230841
H           4.6885550    -1.3798128     1.7496659
H           5.9388027    -2.3201744     0.8827570
O           2.1349136    -2.6571843     1.2904079
O           2.1464026    -3.4174259    -1.1394391
C           0.9331961     1.0405757    -0.8597556
H           0.6855953     2.0548022    -0.5817520
N           1.6162953     0.1946161     0.0008717
C           1.7168566    -0.9130562    -0.6641135
O           1.1703843    -0.8884874    -1.9037330
C           0.6634583     0.3758927    -2.0146232
H           0.1610467     0.6122563    -2.9389760
19
209_C5H8N2O3S_15-0-1-2 (0,) energy =    -928.5850240
S           2.8759602    -0.0590407    -0.5553734
N           4.0831910    -0.8431024     0.3768027
C           3.6523027    -1.5881005     1.5647273
H           2.8615193    -2.2953650     1.3037262
H           3.3097944    -0.9432850     2.3868617
H           4.5121794    -2.1720667     1.9064376
C           5.2529596     0.0176302     0.6158217
H           5.5785902     0.4768621    -0.3183968
H           6.0566638    -0.6298015     0.9791752
H           5.0587863     0.8100696     1.3510572
O           2.7772151    -0.7282670    -1.8487385
O           3.0774966     1.3872587    -0.4751136
C          -0.3564653    -0.4777269     1.5644857
H          -1.0201435    -0.1761293     2.3618426
N           0.8327751     0.1903621     1.3156126
C           1.3361178    -0.4373418     0.3008281
O           0.5968810    -1.4788009    -0.1542444
C          -0.4943503    -1.4909346     0.6683890
H          -1.2360148    -2.2485633     0.4716261
19
209_C5H8N2O3S_15-0-1-2 (15,) energy =    -928.5873642
S           2.9360065    -0.1770923    -0.6313273
N           4.1627212    -0.8332694     0.3623794
C           3.7226143    -1.7060428     1.4574103
H           3.0082615    -2.4460115     1.0868121
H           3.2759065    -1.1512872     2.2943788
H           4.6011235    -2.2500119     1.8171222
C           5.1740692     0.1484889     0.7912315
H           5.4998374     0.7468618    -0.0583679
H           6.0291447    -0.4216755     1.1673067
H           4.8094553     0.8192691     1.5814432
O           2.7983106    -1.0241267    -1.8114788
O           3.1587875     1.2618449    -0.7502063
C          -0.2309393    -0.3539629     1.6243618
H          -0.8331093    -0.0088418     2.4523358
N           0.9937389     0.2225156     1.3227871
C           1.4015958    -0.4348347     0.2831434
O           0.5659463    -1.4147100    -0.1380557
C          -0.4853370    -1.3482702     0.7328314
H          -1.2900840    -2.0468751     0.5683429
19
209_C5H8N2O3S_15-0-1-2 (30,) energy =    -928.5914960
S           3.0435526    -0.3529570    -0.6653379
N           4.2682571    -0.8323930     0.4056135
C           3.8789764    -1.8206037     1.4198802
H           3.2778813    -2.6099741     0.9603347
H           3.3235876    -1.3694353     2.2526649
H           4.7939622    -2.2820043     1.8035614
C           5.0803035     0.2619930     0.9668459
H           5.3326978     0.9744874     0.1838163
H           6.0021773    -0.1877790     1.3486167
H           4.5694208     0.7875087     1.7856892
O           2.9165353    -1.3774755    -1.6962052
O           3.2584906     1.0514753    -1.0021213
C          -0.0805198    -0.3047756     1.6578652
H          -0.6128545     0.0382911     2.5331363
N           1.2118962     0.1146271     1.3781678
C           1.5065222    -0.4950520     0.2724364
O           0.5287177    -1.2909901    -0.2195116
C          -0.4906168    -1.1568477     0.6815835
H          -1.3904861    -1.7134378     0.4742372
19
209_C5H8N2O3S_15-0-1-2 (45,) energy =    -928.5959316
S           3.0696759    -0.5197471    -0.6978820
N           4.2869702    -0.8205809     0.4186647
C           4.0342676    -1.9159364     1.3657225
H           3.5648027    -2.7526558     0.8433102
H           3.4033658    -1.5963984     2.2043700
H           5.0015245    -2.2572887     1.7470007
C           4.9077214     0.3592272     1.0464754
H           5.0499263     1.1375167     0.2988133
H           5.8859520     0.0470313     1.4251540
H           4.3052819     0.7497871     1.8774251
O           2.9649836    -1.6782943    -1.5791401
O           3.2612053     0.8293616    -1.2217754
C          -0.0027546    -0.2885322     1.6835817
H          -0.4696062     0.0054400     2.6123623
N           1.3472204    -0.0689291     1.4439724
C           1.5362533    -0.5522158     0.2555866
O           0.4346508    -1.0724760    -0.3314829
C          -0.5523059    -0.8943933     0.5991757
H          -1.5349454    -1.2473098     0.3303845
19
209_C5H8N2O3S_15-0-1-2 (60,) energy =    -928.5988605
S           3.0564946    -0.6835880    -0.7177959
N           4.2537327    -0.8351108     0.4302416
C           4.1766009    -2.0043464     1.3157364
H           3.8388954    -2.8709796     0.7453738
H           3.5049129    -1.8280874     2.1654339
H           5.1852928    -2.2100174     1.6873053
C           4.7381236     0.3942280     1.0763320
H           4.7660456     1.2000530     0.3440761
H           5.7566147     0.2015003     1.4280002
H           4.1073706     0.6838034     1.9263329
O           2.9662403    -1.9397130    -1.4554943
O           3.2406181     0.5961261    -1.3960458
C           0.0208269    -0.2686512     1.6861819
H          -0.4095370    -0.0198186     2.6451983
N           1.3927294    -0.2205341     1.4669905
C           1.5231981    -0.5850655     0.2299192
O           0.3656396    -0.8693031    -0.4081765
C          -0.5972111    -0.6602071     0.5428644
H          -1.6169580    -0.8357499     0.2402638
19
209_C5H8N2O3S_15-0-1-2 (75,) energy =    -928.5996786
S           3.0261319    -0.8681118    -0.6896094
N           4.2098466    -0.8669445     0.4692026
C           4.3526483    -2.0545551     1.3195315
H           4.1027808    -2.9445235     0.7421969
H           3.7133434    -1.9937305     2.2092349
H           5.4008045    -2.1214922     1.6281285
C           4.5749260     0.4131771     1.0870164
H           4.4848659     1.2097090     0.3484772
H           5.6211050     0.3466814     1.4023220
H           3.9452966     0.6360015     1.9576003
O           2.9490732    -2.2078721    -1.2652613
O           3.1971888     0.3185345    -1.5225206
C           0.0056049    -0.3433292     1.7115189
H          -0.4181730    -0.2172386     2.6970714
N           1.3740473    -0.5039429     1.5203056
C           1.4963601    -0.6208266     0.2354594
O           0.3380646    -0.5559558    -0.4584283
C          -0.6176412    -0.3761249     0.5067440
H          -1.6368504    -0.2961308     0.1645419
19
209_C5H8N2O3S_15-0-1-2 (90,) energy =    -928.5987226
S           2.9936965    -0.9703415    -0.6708445
N           4.1545388    -0.8681809     0.4990735
C           4.5263562    -2.0581789     1.2667826
H           4.3142747    -2.9494351     0.6778321
H           3.9841477    -2.1074734     2.2202367
H           5.6025732    -2.0127458     1.4646024
C           4.4347684     0.4338806     1.1054314
H           4.2226220     1.2248117     0.3849044
H           5.5001040     0.4740229     1.3556479
H           3.8400221     0.5889083     2.0145209
O           2.9256962    -2.3557979    -1.1281792
O           3.1633884     0.1389104    -1.6048904
C          -0.0547395    -0.3164809     1.6563692
H          -0.5068456    -0.2330650     2.6338854
N           1.2965109    -0.6045953     1.4993355
C           1.4634815    -0.6150879     0.2143520
O           0.3503787    -0.3649712    -0.5114142
C          -0.6239540    -0.1751061     0.4323988
H          -1.6132432     0.0438121     0.0639752
19
209_C5H8N2O3S_15-0-1-2 (105,) energy =    -928.5967312
S           2.9962906    -1.0592202    -0.6175729
N           4.1084885    -0.9550173     0.5897121
C           4.6832414    -2.1463551     1.2093756
H           4.3871562    -3.0290259     0.6443710
H           4.3436146    -2.2483887     2.2483332
H           5.7762822    -2.0637909     1.1945506
C           4.4278977     0.3426114     1.1795864
H           4.0878715     1.1426117     0.5203720
H           5.5153599     0.4277330     1.2854966
H           3.9540557     0.4518492     2.1626869
O           2.9128154    -2.4542980    -1.0428127
O           3.2036902     0.0212679    -1.5793129
C          -0.0947224    -0.2459188     1.6010487
H          -0.5754217    -0.1221341     2.5605382
N           1.2492118    -0.5857241     1.4970068
C           1.4579596    -0.6345027     0.2193189
O           0.3784001    -0.3630161    -0.5493764
C          -0.6185845    -0.1149444     0.3555999
H          -1.5867938     0.1297686    -0.0508304
19
209_C5H8N2O3S_15-0-1-2 (120,) energy =    -928.5952335
S           3.0348190    -1.0253842    -0.5649723
N           4.0215018    -0.9780100     0.7586835
C           4.7624619    -2.1696147     1.1690775
H           4.2755661    -3.0592515     0.7721387
H           4.7693438    -2.2208571     2.2634987
H           5.7984897    -2.1367234     0.8055795
C           4.5371280     0.3155078     1.2048655
H           3.8735730     1.1189500     0.8845664
H           5.5405152     0.5083017     0.8027932
H           4.5780201     0.3153085     2.2990168
O           2.9583294    -2.4079729    -1.0342321
O           3.3369864     0.0742935    -1.4809330
C          -0.2202107    -0.1609404     1.3901029
H          -0.7747568     0.0189148     2.2996283
N           1.1353576    -0.4690324     1.4134798
C           1.4399573    -0.6097484     0.1631593
O           0.4162001    -0.4251662    -0.7033013
C          -0.6519469    -0.1385379     0.1034507
H          -1.5923179     0.0446286    -0.3912286
19
209_C5H8N2O3S_15-0-1-2 (135,) energy =    -928.5949006
S           3.0825573    -1.2398856    -0.5281932
N           4.0076723    -1.2900308     0.8598275
C           4.8898644    -2.4518558     1.0272232
H           4.3843375    -3.3501934     0.6754658
H           5.1025058    -2.5553543     2.0956509
H           5.8381944    -2.3343551     0.4844263
C           4.5559138    -0.0074423     1.3182337
H           3.7929387     0.7688072     1.2551448
H           5.4360174     0.2989371     0.7380572
H           4.8346540    -0.1251010     2.3693843
O           2.9418625    -2.6031931    -1.0362375
O           3.4924038    -0.1455671    -1.4114206
C          -0.1598811    -0.0388072     1.2658804
H          -0.7049724     0.3373091     2.1193516
N           1.1982850    -0.3265913     1.3390712
C           1.4868293    -0.7511174     0.1510722
O           0.4523950    -0.7706627    -0.7209982
C          -0.6077678    -0.3119768     0.0141655
H          -1.5566338    -0.2569717    -0.4946856
19
209_C5H8N2O3S_15-0-1-2 (150,) energy =    -928.5942790
S           2.8847298    -1.3103199    -0.4313521
N           3.8853806    -1.1755539     0.9102833
C           4.9778968    -2.1589021     0.9660014
H           4.5903834    -3.1463905     0.7171172
H           5.3535727    -2.1723072     1.9932909
H           5.8043816    -1.9071944     0.2863296
C           4.2895365     0.1974448     1.2397429
H           3.4137741     0.8487135     1.2670429
H           5.0204695     0.6029350     0.5277875
H           4.7265845     0.1794523     2.2421106
O           2.7372631    -2.7334340    -0.7326435
O           3.2301856    -0.3600211    -1.4921191
C          -0.3450986    -0.1834022     1.4324758
H          -0.9452955    -0.0354678     2.3184813
N           0.9523353    -0.6738251     1.5067402
C           1.3414139    -0.7044351     0.2725021
O           0.4231463    -0.2840615    -0.6305214
C          -0.6628427     0.0456288     0.1320787
H          -1.5282388     0.4113229    -0.3969414
19
209_C5H8N2O3S_15-0-1-2 (165,) energy =    -928.5928615
S           2.8060223    -1.4650707    -0.3077138
N           3.8530179    -1.2327994     1.0034442
C           5.0692215    -2.0600217     0.8971832
H           4.7875794    -3.0903309     0.6776534
H           5.5697560    -2.0309589     1.8690855
H           5.7608893    -1.6932952     0.1254369
C           4.1526347     0.1812315     1.2759156
H           3.2252486     0.7439542     1.4044075
H           4.7536997     0.6474082     0.4834012
H           4.7019524     0.2216176     2.2207486
O           2.6003787    -2.9042806    -0.4501242
O           3.1684266    -0.6501896    -1.4714632
C          -0.4168029    -0.1645679     1.4408795
H          -1.1011581    -0.1077300     2.2749632
N           0.7674572    -0.8819871     1.5193862
C           1.3107995    -0.7117815     0.3566040
O           0.5939858     0.0481917    -0.5068049
C          -0.5190651     0.3938555     0.2057085
H          -1.2405168     1.0140987    -0.3016483
19
209_C5H8N2O3S_15-0-1-2 (180,) energy =    -928.5914774
S           2.5212709    -1.8143190     0.0568245
N           3.8513848    -0.7579705     0.2834748
C           5.1092993    -1.4889095     0.0102719
H           5.0497094    -1.9589765    -0.9732310
H           5.3242099    -2.2500890     0.7724020
H           5.9175325    -0.7526582    -0.0046859
C           3.8946324    -0.1529352     1.6302227
H           2.9755360     0.3978162     1.8339191
H           4.7272308     0.5562549     1.6341515
H           4.0486904    -0.8975543     2.4233056
O           2.4930494    -2.8689982     1.0720448
O           2.4631805    -2.1375805    -1.3657481
C          -0.4890428     0.3116482     1.2906455
H          -1.2043039     0.6099879     2.0432602
N           0.4975345    -0.6259207     1.5565537
C           1.1410783    -0.7256322     0.4373839
O           0.6791631     0.0652855    -0.5622437
C          -0.3730965     0.7271521     0.0010777
H          -0.9036202     1.4177048    -0.6349558
