28
023_C9H15N4+_8-9-21-18 (-165,) energy =    -570.7520153
N           0.2850539     0.5111307    -1.0912671
C          -0.8966087     0.8004764    -0.5310160
H          -1.5932106     1.3714573    -1.1412353
C          -1.2249009     0.4000200     0.7621581
H          -2.1846514     0.6365367     1.2081373
C          -0.2533496    -0.3193746     1.4524231
H          -0.4219651    -0.6669886     2.4695195
N           0.9290029    -0.6302743     0.9044186
C           1.1415646    -0.1980665    -0.3470118
C           2.4477585    -0.5682856    -1.0286064
H           2.4190444    -0.1236875    -2.0247898
H           2.4898962    -1.6664530    -1.1479129
N           6.2858196     0.0365959     0.7933817
H           6.6468358    -0.9190744     0.6808436
H           7.0271105     0.5752974     1.2549257
C           5.9930302     0.6148729    -0.5820459
H           6.9103006     0.5386054    -1.1707352
H           5.7359309     1.6642721    -0.4249372
C           4.8291547    -0.1452592    -1.2094098
H           5.1372127    -1.1887993    -1.4271476
H           4.6117947     0.3306037    -2.1707880
N           3.6585544    -0.0679995    -0.3441226
C           3.9389602    -0.7486836     0.9196169
H           4.2331141    -1.8086379     0.7674131
H           3.0341078    -0.7580782     1.5320768
C           5.0391845    -0.0151628     1.6692092
H           5.3194371    -0.5137836     2.6000034
H           4.7621761     1.0221056     1.8681952
28
023_C9H15N4+_8-9-21-18 (-150,) energy =    -570.7525974
N           0.2310625     0.2412145    -1.1793829
C          -0.9313193     0.6241316    -0.6343842
H          -1.6733772     1.0316925    -1.3176783
C          -1.1848127     0.5152309     0.7309973
H          -2.1279103     0.8289254     1.1646928
C          -0.1619863    -0.0195165     1.5097942
H          -0.2745915    -0.1402220     2.5852844
N           1.0025260    -0.4196895     0.9823446
C           1.1415701    -0.2662349    -0.3421281
C           2.4363763    -0.7387072    -0.9809530
H           2.4291173    -0.3799828    -2.0118251
H           2.4457566    -1.8422310    -1.0199523
N           6.2586181     0.0745637     0.7855556
H           6.7119292    -0.8190207     0.5560025
H           6.9563038     0.6338416     1.2886385
C           5.8615196     0.7689446    -0.5079582
H           6.7644421     0.8710579    -1.1146187
H           5.4873308     1.7543996    -0.2234691
C           4.7770384    -0.0495027    -1.2019133
H           5.2078261    -1.0106527    -1.5527751
H           4.4693205     0.5064055    -2.0926198
N           3.6416733    -0.2194693    -0.3094361
C           4.0143809    -0.9739612     0.8814945
H           4.4016475    -1.9855863     0.6373402
H           3.1248970    -1.0953433     1.5053242
C           5.0559845    -0.2049226     1.6794476
H           5.4199825    -0.7620892     2.5458405
H           4.6745713     0.7690344     1.9924595
28
023_C9H15N4+_8-9-21-18 (-135,) energy =    -570.7515603
N           0.2601994     0.1620073    -1.2105371
C          -0.8712365     0.6538579    -0.6853866
H          -1.6030646     1.0396976    -1.3919094
C          -1.1051524     0.6770889     0.6869594
H          -2.0233114     1.0762869     1.1036361
C          -0.0973145     0.1580299     1.4974869
H          -0.1995922     0.1365033     2.5807167
N           1.0365629    -0.3447051     0.9936877
C           1.1556776    -0.3152985    -0.3422199
C           2.4227163    -0.9089927    -0.9318670
H           2.4359199    -0.6613689    -1.9953591
H           2.3853932    -2.0077354    -0.8593185
N           6.2148707     0.1428765     0.7740421
H           6.7515751    -0.6783671     0.4662514
H           6.8660431     0.7336214     1.3027293
C           5.7104709     0.8862343    -0.4538603
H           6.5814888     1.1354243    -1.0646593
H           5.2359911     1.7978498    -0.0853132
C           4.7079678     0.0031026    -1.1916468
H           5.2433388    -0.8614832    -1.6382992
H           4.3032921     0.5903601    -2.0209799
N           3.6377683    -0.3791243    -0.2916828
C           4.1020237    -1.1521130     0.8462222
H           4.5792508    -2.1103925     0.5513028
H           3.2422470    -1.3821893     1.4807266
C           5.0774128    -0.3259587     1.6730416
H           5.5254450    -0.8937106     2.4919336
H           4.5983016     0.5764325     2.0577092
28
023_C9H15N4+_8-9-21-18 (-120,) energy =    -570.7498295
N          -0.0196844    -0.0842529    -1.2948125
C          -1.0818053     0.5455962    -0.7698805
H          -1.7831444     0.9812318    -1.4784000
C          -1.2831714     0.6435423     0.6037680
H          -2.1460091     1.1517149     1.0201331
C          -0.3171685     0.0524475     1.4176832
H          -0.3994226     0.0832532     2.5025379
N           0.7479271    -0.5835658     0.9162259
C           0.8370837    -0.6202247    -0.4223590
C           2.0292283    -1.3660739    -0.9940175
H           2.0201482    -1.2428777    -2.0799849
H           1.9197423    -2.4408138    -0.7934227
N           5.8938140    -0.2310419     0.4828388
H           6.4575699    -0.9870314     0.0726123
H           6.5444117     0.3628581     1.0085913
C           5.2501448     0.5655790    -0.6429487
H           6.0551256     0.9230643    -1.2896503
H           4.7442429     1.4090724    -0.1691408
C           4.2574843    -0.3319340    -1.3774857
H           4.8175441    -1.1103533    -1.9382822
H           3.7429252     0.2862147    -2.1186954
N           3.2985517    -0.8715870    -0.4388037
C           3.8873365    -1.6817245     0.6056678
H           4.4042701    -2.5863627     0.2212616
H           3.0955862    -2.0107129     1.2835108
C           4.8637402    -0.8443332     1.4228996
H           5.4114969    -1.4323202     2.1632179
H           4.3518843    -0.0096170     1.9055305
28
023_C9H15N4+_8-9-21-18 (-105,) energy =    -570.7499513
N           0.8200577     0.5749031    -0.7249579
C          -0.2494553     1.3300284    -0.4488586
H          -0.2902085     2.3093560    -0.9219076
C          -1.2705863     0.8928921     0.3944175
H          -2.1367519     1.5101242     0.6062230
C          -1.1205843    -0.3758735     0.9468534
H          -1.8677751    -0.7949079     1.6175229
N          -0.0545080    -1.1482295     0.6878010
C           0.8576128    -0.6315452    -0.1392486
C           2.0622741    -1.4923992    -0.4660343
H           2.0574495    -1.7501850    -1.5335428
H           1.9724639    -2.4271095     0.0930281
N           6.0410327    -0.0184634     0.1955846
H           6.5564905    -0.7555810    -0.3023378
H           6.7451612     0.6346373     0.5564941
C           5.1225134     0.6883217    -0.7928817
H           5.7467665     1.0519022    -1.6124660
H           4.6795674     1.5283568    -0.2545011
C           4.0496680    -0.2890434    -1.2551040
H           4.5107029    -1.0879510    -1.8723694
H           3.3529535     0.2646746    -1.8902632
N           3.3226041    -0.8061799    -0.1070099
C           4.1916509    -1.5651648     0.7771008
H           4.6695596    -2.4371688     0.2835335
H           3.6130961    -1.9523045     1.6209381
C           5.2722015    -0.6512080     1.3463723
H           5.9954672    -1.1875421     1.9652234
H           4.8322977     0.1735375     1.9104625
28
023_C9H15N4+_8-9-21-18 (-90,) energy =    -570.7520352
N           0.8458768     0.5315204    -0.7608293
C          -0.2411913     1.2999414    -0.6191715
H          -0.2446352     2.2429792    -1.1621492
C          -1.3223593     0.9182926     0.1727138
H          -2.2025529     1.5434009     0.2750959
C          -1.2127896    -0.3080255     0.8230050
H          -2.0087340    -0.6836673     1.4625113
N          -0.1291233    -1.0882120     0.7025187
C           0.8449013    -0.6290592    -0.0877383
C           2.0603480    -1.5222540    -0.2539500
H           2.0834261    -1.9405015    -1.2733565
H           1.9424286    -2.3587990     0.4376442
N           6.0509331     0.0059236     0.1090860
H           6.5113456    -0.6601831    -0.5241584
H           6.7850030     0.6349907     0.4527106
C           5.0081535     0.7880668    -0.6799159
H           5.5217124     1.2491937    -1.5267558
H           4.6282009     1.5586199    -0.0062272
C           3.8991363    -0.1607252    -1.1094834
H           4.2916940    -0.8879651    -1.8504779
H           3.1192835     0.4303217    -1.5976216
N           3.3172407    -0.8117699     0.0581216
C           4.3027988    -1.6400092     0.7372016
H           4.7245695    -2.4396921     0.0932757
H           3.8421174    -2.1324171     1.5987321
C           5.4345999    -0.7649748     1.2665493
H           6.2330313    -1.3465933     1.7333528
H           5.0573277    -0.0164475     1.9661739
28
023_C9H15N4+_8-9-21-18 (-75,) energy =    -570.7525239
N           0.8041205     0.4344656    -0.8569446
C          -0.3020285     1.1899014    -0.8323716
H          -0.3140863     2.0538951    -1.4935506
C          -1.3882709     0.8884242    -0.0156730
H          -2.2846465     1.4986849    -0.0098245
C          -1.2604679    -0.2387261     0.7928953
H          -2.0584612    -0.5469983     1.4650629
N          -0.1572897    -0.9983594     0.7928940
C           0.8227515    -0.6270937    -0.0383849
C           2.0395073    -1.5370090    -0.0628871
H           2.0589371    -2.0879472    -1.0207991
H           1.8984902    -2.2697266     0.7334708
N           6.0429717     0.0006479     0.0592516
H           6.4422584    -0.5845996    -0.6855016
H           6.8048786     0.5969209     0.4007709
C           4.9267027     0.8510569    -0.5368329
H           5.3575023     1.4100300    -1.3708400
H           4.6112130     1.5372190     0.2517052
C           3.7877943    -0.0598111    -0.9668825
H           4.1229341    -0.7036532    -1.8075710
H           2.9629880     0.5562315    -1.3344828
N           3.3178589    -0.8401880     0.1733606
C           4.3637029    -1.7253799     0.6614667
H           4.7209252    -2.4434863    -0.1060687
H           3.9880756    -2.3170818     1.5017519
C           5.5407791    -0.9020018     1.1753390
H           6.3804258    -1.5229691     1.4965211
H           5.2313782    -0.2409692     1.9873342
28
023_C9H15N4+_8-9-21-18 (-60,) energy =    -570.7508931
N           0.7094216     0.0660607    -1.1362328
C          -0.3925076     0.8272953    -1.1907596
H          -0.5252925     1.4220881    -2.0920825
C          -1.3274218     0.8549999    -0.1594309
H          -2.2243459     1.4617784    -0.2181984
C          -1.0470129     0.0641976     0.9530587
H          -1.7174524     0.0334638     1.8094012
N           0.0522143    -0.6968836     1.0314036
C           0.8736937    -0.6668090    -0.0250312
C           2.0780853    -1.5866721     0.0413965
H           2.1081232    -2.1866177    -0.8852660
H           1.9279087    -2.2608607     0.8866396
N           6.0575187     0.0270987     0.0994366
H           6.4048262    -0.4133252    -0.7621279
H           6.8360746     0.5769824     0.4790937
C           4.8880585     0.9362909    -0.2579071
H           5.2470429     1.6428523    -1.0099653
H           4.6214414     1.4659043     0.6589185
C           3.7347145     0.0803630    -0.7611869
H           4.0196401    -0.3977377    -1.7221365
H           2.8864058     0.7286770    -0.9862579
N           3.3637621    -0.8909830     0.2588742
C           4.4522382    -1.8166766     0.5222678
H           4.7566974    -2.3944917    -0.3754684
H           4.1429147    -2.5444957     1.2787932
C           5.6562240    -1.0639318     1.0797683
H           6.5260272    -1.7092380     1.2241972
H           5.4052386    -0.5586920     2.0144607
28
023_C9H15N4+_8-9-21-18 (-45,) energy =    -570.7487634
N           0.6133847    -0.2942340    -1.2313729
C          -0.4727442     0.4789517    -1.3686311
H          -0.7016416     0.8166007    -2.3773628
C          -1.2747540     0.8321263    -0.2858626
H          -2.1603664     1.4461004    -0.4082656
C          -0.8768752     0.3583625     0.9629637
H          -1.4382450     0.5970419     1.8639257
N           0.2062525    -0.4133445     1.1236581
C           0.8893569    -0.7138644     0.0120840
C           2.0765981    -1.6409796     0.1725556
H           2.1130710    -2.2892508    -0.7182042
H           1.9147882    -2.2619664     1.0570905
N           6.0344316     0.0254707     0.0925212
H           6.2909738    -0.2791953    -0.8553951
H           6.8488058     0.5238658     0.4681059
C           4.8377676     0.9615955    -0.0032250
H           5.1210240     1.7824114    -0.6663212
H           4.6623916     1.3371227     1.0069174
C           3.6350843     0.1812804    -0.5196766
H           3.8081753    -0.1187204    -1.5734451
H           2.7814001     0.8604812    -0.5307174
N           3.3692151    -0.9445604     0.3626066
C           4.4798901    -1.8794925     0.3890444
H           4.6985161    -2.3185529    -0.6069867
H           4.2394154    -2.7137309     1.0558376
C           5.7312075    -1.2021067     0.9368761
H           6.6106194    -1.8494790     0.9007895
H           5.5721028    -0.8421326     1.9552198
28
023_C9H15N4+_8-9-21-18 (-30,) energy =    -570.7467038
N           0.6233889    -0.4637864    -1.2563300
C          -0.4374365     0.3174327    -1.4995143
H          -0.6553952     0.5262005    -2.5449338
C          -1.2287416     0.8360164    -0.4764644
H          -2.0943547     1.4558148    -0.6834324
C          -0.8463872     0.5206853     0.8257876
H          -1.3990737     0.8954347     1.6848264
N           0.2118646    -0.2571366     1.0924531
C           0.8838988    -0.7250919     0.0332843
C           2.0432878    -1.6574642     0.3141293
H           2.0631308    -2.3945560    -0.5029394
H           1.8602000    -2.1784115     1.2577415
N           6.0098249    -0.0182905     0.0210369
H           6.1705979    -0.2237427    -0.9735842
H           6.8650948     0.4301445     0.3674962
C           4.8279349     0.9334788     0.1386486
H           5.0657111     1.8203338    -0.4535358
H           4.7515877     1.1955837     1.1958180
C           3.5676235     0.2269278    -0.3475696
H           3.6338650     0.0532586    -1.4404667
H           2.7341642     0.9140913    -0.1905042
N           3.3635335    -0.9871782     0.4250510
C           4.4547275    -1.9294586     0.2609895
H           4.5762180    -2.2705466    -0.7885101
H           4.2580422    -2.8233176     0.8618282
C           5.7627695    -1.3246726     0.7586546
H           6.6231436    -1.9724589     0.5745543
H           5.7041664    -1.0711705     1.8189695
28
023_C9H15N4+_8-9-21-18 (-15,) energy =    -570.7451445
N           0.7315817    -0.4728148    -1.1577484
C          -0.3229661     0.2725335    -1.5110960
H          -0.4517494     0.4554704    -2.5760353
C          -1.2187056     0.7861206    -0.5743261
H          -2.0788781     1.3760421    -0.8714901
C          -0.9473996     0.5062624     0.7626794
H          -1.5854272     0.8795549     1.5609483
N           0.1059196    -0.2329541     1.1399504
C           0.8833875    -0.7006775     0.1565784
C           2.0328434    -1.6008868     0.5591368
H           2.0247054    -2.4484426    -0.1402756
H           1.8464204    -1.9767112     1.5686210
N           5.9910413    -0.0090859    -0.0675664
H           6.0394588    -0.1393828    -1.0864349
H           6.8891047     0.3970229     0.2172448
C           4.8520589     0.9493469     0.2484501
H           5.0474481     1.8754958    -0.2973803
H           4.8948123     1.1298773     1.3244250
C           3.5308554     0.3030459    -0.1538544
H           3.4753326     0.2166733    -1.2564210
H           2.7368769     0.9898416     0.1475511
N           3.3787905    -0.9641724     0.5413607
C           4.4243215    -1.9082816     0.1921931
H           4.4276550    -2.1706027    -0.8863685
H           4.2735765    -2.8416035     0.7438752
C           5.7915573    -1.3644231     0.5915459
H           6.6119134    -2.0096379     0.2682061
H           5.8510282    -1.1927992     1.6681382
28
023_C9H15N4+_8-9-21-18 (0,) energy =    -570.7448532
N           0.4368291     0.3843029    -1.2253318
C          -0.6193814    -0.4422603    -1.2409038
H          -1.2316938    -0.4252456    -2.1400043
C          -0.9229587    -1.2807977    -0.1717270
H          -1.7837742    -1.9402271    -0.1888355
C          -0.0574550    -1.2333333     0.9204966
H          -0.2131993    -1.8659648     1.7921520
N           0.9976573    -0.4105742     0.9614854
C           1.1828017     0.3710686    -0.1155777
C           2.3284067     1.3612028    -0.0495561
H           2.1974276     1.9373828     0.8741481
H           2.2349521     2.0448816    -0.8977670
N           6.2028863    -0.4652717     0.5140229
H           6.0294038    -0.9124409     1.4235762
H           7.1728312    -0.6842533     0.2614896
C           5.2420268    -1.0533044    -0.5089537
H           5.4000308    -2.1344760    -0.5174334
H           5.5214815    -0.6241436    -1.4732327
C           3.8165642    -0.6744598    -0.1224435
H           3.5320341    -1.1843373     0.8168248
H           3.1597743    -1.0635673    -0.9049699
N           3.6991815     0.7741695    -0.0551772
C           4.5582365     1.3277288     0.9788705
H           4.3129570     0.9514897     1.9932196
H           4.4472530     2.4158620     1.0068484
C           6.0217247     1.0368090     0.6643149
H           6.6967790     1.3702101     1.4561586
H           6.3161186     1.4772434    -0.2903905
28
023_C9H15N4+_8-9-21-18 (15,) energy =    -570.7465594
N           0.3789589     0.3549327    -1.2333696
C          -0.6739510    -0.4674348    -1.1162794
H          -1.3613764    -0.4936902    -1.9590955
C          -0.8830277    -1.2511789     0.0154351
H          -1.7403412    -1.9092961     0.1047798
C           0.0730043    -1.1516663     1.0253078
H          -0.0066121    -1.7402698     1.9371990
N           1.1268275    -0.3306540     0.9343789
C           1.2178350     0.3951294    -0.1936509
C           2.3640640     1.3851570    -0.2810474
H           2.2392783     2.1201296     0.5203867
H           2.2671033     1.9121011    -1.2348613
N           6.1464636    -0.5185515     0.5768599
H           5.8649078    -1.0513203     1.4099101
H           7.1398841    -0.7223883     0.4217042
C           5.3153055    -0.9916455    -0.6066333
H           5.4666235    -2.0699246    -0.6982673
H           5.7129695    -0.4798334    -1.4852589
C           3.8568415    -0.6246524    -0.3580885
H           3.4634977    -1.1980210     0.5001311
H           3.2895622    -0.9387162    -1.2396705
N           3.7384959     0.8185176    -0.1852668
C           4.4559188     1.2409851     1.0125157
H           4.0789573     0.7574133     1.9351920
H           4.3462277     2.3209926     1.1471374
C           5.9469556     0.9632733     0.8543378
H           6.5183436     1.2072539     1.7531304
H           6.3576476     1.4933750    -0.0073830
28
023_C9H15N4+_8-9-21-18 (30,) energy =    -570.7500624
N           0.3488522     0.3761831    -1.1931493
C          -0.7067411    -0.4152826    -0.9562496
H          -1.4693759    -0.4473797    -1.7314817
C          -0.8280091    -1.1634370     0.2123430
H          -1.6868989    -1.7989343     0.3980107
C           0.2179411    -1.0595387     1.1272185
H           0.2094941    -1.6211861     2.0593097
N           1.2771716    -0.2667109     0.9162831
C           1.2813154     0.4240604    -0.2372355
C           2.4364274     1.3843092    -0.4662656
H           2.3174721     2.2520875     0.1902655
H           2.3513487     1.7461365    -1.4958978
N           6.1106493    -0.5615012     0.6629345
H           5.7354487    -1.1672899     1.4039947
H           7.1175947    -0.7510308     0.6121212
C           5.4345006    -0.9248038    -0.6508419
H           5.6055749    -1.9906912    -0.8197923
H           5.9317100    -0.3370272    -1.4250562
C           3.9538752    -0.5777849    -0.5484234
H           3.4680775    -1.2192685     0.2069966
H           3.4948354    -0.8116982    -1.5147833
N           3.8029735     0.8468387    -0.2667980
C           4.3612094     1.1511663     1.0502943
H           3.8753774     0.5819645     1.8642483
H           4.2222484     2.2136888     1.2708005
C           5.8632004     0.8893472     1.0477484
H           6.3204270     1.0495905     2.0270529
H           6.3692017     1.4953731     0.2933401
28
023_C9H15N4+_8-9-21-18 (45,) energy =    -570.7533040
N           0.2202944     0.4146901    -1.1494574
C          -0.8433660    -0.3240683    -0.8099070
H          -1.6924122    -0.2899672    -1.4894212
C          -0.8695858    -1.1033702     0.3455620
H          -1.7348103    -1.6996260     0.6134359
C           0.2779516    -1.0821842     1.1330517
H           0.3466520    -1.6705073     2.0459573
N           1.3500851    -0.3401642     0.8182455
C           1.2610043     0.3810881    -0.3108781
C           2.4299574     1.2884412    -0.6704852
H           2.2977308     2.2584695    -0.1772168
H           2.3710183     1.4803027    -1.7470733
N           6.0711471    -0.5340797     0.6924682
H           5.6611942    -1.1934632     1.3664085
H           7.0864295    -0.6775077     0.7232429
C           5.5325016    -0.8566232    -0.6936973
H           5.7726803    -1.9023848    -0.9001392
H           6.0658494    -0.2046906    -1.3884727
C           4.0323283    -0.5847599    -0.7099466
H           3.5134031    -1.2986889    -0.0471337
H           3.6758931    -0.7694402    -1.7289933
N           3.7824250     0.8068805    -0.3521382
C           4.2131296     1.0697395     1.0196091
H           3.6948130     0.4355630     1.7596581
H           3.9957155     2.1110321     1.2765306
C           5.7226010     0.8829021     1.1249348
H           6.0934436     1.0125713     2.1444670
H           6.2558390     1.5489487     0.4433538
28
023_C9H15N4+_8-9-21-18 (60,) energy =    -570.7549465
N           0.1087023     0.6151612    -1.0036914
C          -0.9768942    -0.0395284    -0.5805587
H          -1.9118880     0.1943528    -1.0856117
C          -0.9247523    -0.9780150     0.4511237
H          -1.8091874    -1.5070308     0.7882884
C           0.3231887    -1.2005632     1.0208976
H           0.4549070    -1.9183479     1.8280254
N           1.4259439    -0.5490116     0.6150040
C           1.2583830     0.3315464    -0.3807109
C           2.4637840     1.1279859    -0.8709617
H           2.3287779     2.1769363    -0.5798527
H           2.4453597     1.1235891    -1.9668858
N           6.0835199    -0.4876146     0.7541690
H           5.6634638    -1.1841219     1.3832691
H           7.1001022    -0.5687288     0.8646294
C           5.6787058    -0.8162703    -0.6756665
H           6.0097904    -1.8372073    -0.8806160
H           6.2158235    -0.1116100    -1.3138687
C           4.1680650    -0.6511431    -0.8042876
H           3.6512140    -1.4205478    -0.2055338
H           3.9061054    -0.8248014    -1.8532089
N           3.7918233     0.7056138    -0.4291677
C           4.1057902     0.9853031     0.9672297
H           3.5830495     0.3114739     1.6670773
H           3.7998694     2.0077362     1.2108190
C           5.6136330     0.8967231     1.1783492
H           5.9007265     1.0307515     2.2240530
H           6.1508858     1.6072729     0.5467295
28
023_C9H15N4+_8-9-21-18 (75,) energy =    -570.7548707
N           0.0787287     0.8321297    -0.7597152
C          -1.0163125     0.2532879    -0.2570659
H          -1.9702745     0.6979085    -0.5332118
C          -0.9508674    -0.8601131     0.5817127
H          -1.8432881    -1.3234193     0.9875634
C           0.3205934    -1.3407464     0.8724985
H           0.4628518    -2.2019138     1.5222811
N           1.4337709    -0.7785709     0.3729409
C           1.2516095     0.2830797    -0.4239717
C           2.4753706     0.9459635    -1.0483601
H           2.3433222     2.0315044    -0.9739171
H           2.4849843     0.7231061    -2.1223820
N           6.0815404    -0.4098120     0.8217837
H           5.6738987    -1.1454139     1.4136323
H           7.0906818    -0.4119886     1.0057153
C           5.8083309    -0.7517882    -0.6360869
H           6.2387610    -1.7382612    -0.8245766
H           6.3272894     0.0047065    -1.2283919
C           4.3015054    -0.7132544    -0.8701922
H           3.8115260    -1.5368502    -0.3223933
H           4.1296141    -0.8868127    -1.9371083
N           3.7843699     0.5970449    -0.5031387
C           3.9819019     0.8982325     0.9059589
H           3.4706909     0.1832215     1.5740451
H           3.5791798     1.8923718     1.1259125
C           5.4744264     0.9278072     1.2200386
H           5.6779368     1.0730019     2.2837447
H           5.9947768     1.6857551     0.6308995
28
023_C9H15N4+_8-9-21-18 (90,) energy =    -570.7529640
N           0.1232310     0.9584742    -0.5951144
C          -0.9801096     0.4692155    -0.0158602
H          -1.8880369     1.0577366    -0.1304192
C          -0.9756282    -0.7253370     0.7027550
H          -1.8732716    -1.1145614     1.1703420
C           0.2449148    -1.3880915     0.7954206
H           0.3388760    -2.3218091     1.3464553
N           1.3603847    -0.9220345     0.2142032
C           1.2368953     0.2313082    -0.4612012
C           2.4688355     0.7595214    -1.1840946
H           2.3466936     1.8431573    -1.2918590
H           2.4930460     0.3498581    -2.2004224
N           6.0756424    -0.3431841     0.8559685
H           5.7079586    -1.1309924     1.4054442
H           7.0700093    -0.2598353     1.0936985
C           5.9110705    -0.6618335    -0.6231467
H           6.4405472    -1.5981725    -0.8151625
H           6.3870404     0.1578677    -1.1653329
C           4.4214161    -0.7530350    -0.9400431
H           3.9879360    -1.6457523    -0.4517736
H           4.3247954    -0.8990097    -2.0199155
N           3.7607357     0.4814643    -0.5544695
C           3.8629320     0.7662818     0.8644199
H           3.3870994    -0.0069979     1.4940598
H           3.3606214     1.7141291     1.0843114
C           5.3291940     0.9213488     1.2563542
H           5.4651980     1.0512524     2.3327745
H           5.8066980     1.7409876     0.7156039
28
023_C9H15N4+_8-9-21-18 (105,) energy =    -570.7497021
N           0.2081544     1.0057588    -0.5595965
C          -0.9117765     0.6166838     0.0647667
H          -1.7648983     1.2876464    -0.0108955
C          -0.9882308    -0.5766824     0.7796418
H          -1.8985166    -0.8848352     1.2820527
C           0.1702269    -1.3493962     0.8230836
H           0.2001438    -2.2899743     1.3697127
N           1.2982004    -0.9856913     0.1974259
C           1.2528022     0.1768401    -0.4736291
C           2.4983452     0.5800821    -1.2476392
H           2.3935705     1.6413299    -1.5005333
H           2.5227570     0.0290156    -2.1938155
N           6.1469093    -0.2617236     0.8587509
H           5.8602608    -1.1139038     1.3584359
H           7.1205474    -0.0802501     1.1258370
C           6.0488582    -0.5177790    -0.6378798
H           6.6852257    -1.3769415    -0.8636135
H           6.4379707     0.3780292    -1.1261584
C           4.5852800    -0.7593184    -0.9974664
H           4.2569453    -1.7284752    -0.5715159
H           4.5288845    -0.8537786    -2.0854803
N           3.7759637     0.3588831    -0.5591875
C           3.8216125     0.5871514     0.8702168
H           3.4240712    -0.2624885     1.4549135
H           3.2119927     1.4604283     1.1233950
C           5.2536787     0.8876753     1.3033217
H           5.3550616     0.9755436     2.3878619
H           5.6437108     1.7831866     0.8153562
28
023_C9H15N4+_8-9-21-18 (120,) energy =    -570.7464701
N           0.2849096     1.0471511    -0.5291829
C          -0.8471211     0.7746279     0.1357713
H          -1.6328411     1.5249629     0.0785619
C          -1.0157053    -0.3984904     0.8667805
H          -1.9355170    -0.6128670     1.3997419
C           0.0644048    -1.2796428     0.8847749
H           0.0211586    -2.2131543     1.4425225
N           1.2002536    -1.0336541     0.2195656
C           1.2457397     0.1202458    -0.4669101
C           2.4941229     0.3836353    -1.2904637
H           2.3997814     1.3899812    -1.7123073
H           2.5028781    -0.3242149    -2.1266358
N           6.1903210    -0.1912419     0.8470076
H           6.0010347    -1.1018822     1.2862235
H           7.1342651     0.0832966     1.1400774
C           6.1342637    -0.3564724    -0.6641567
H           6.8621589    -1.1252053    -0.9350106
H           6.4280671     0.6063229    -1.0871315
C           4.7092136    -0.7291366    -1.0642579
H           4.4869894    -1.7568442    -0.7097819
H           4.6779116    -0.7556793    -2.1570230
N           3.7757123     0.2597777    -0.5683534
C           3.7814781     0.3863616     0.8742379
H           3.4769212    -0.5414033     1.3931465
H           3.0771901     1.1650117     1.1815529
C           5.1660322     0.8153563     1.3515179
H           5.2454825     0.8382257     2.4412302
H           5.4554247     1.7811880     0.9325273
28
023_C9H15N4+_8-9-21-18 (135,) energy =    -570.7447899
N           0.3695618     1.0366081    -0.5334866
C          -0.7651478     0.9050624     0.1695081
H          -1.4600989     1.7408699     0.1240636
C          -1.0466749    -0.2330854     0.9203478
H          -1.9704084    -0.3349712     1.4793457
C          -0.0748610    -1.2330698     0.9214708
H          -0.2081589    -2.1493811     1.4931955
N           1.0608441    -1.1270785     0.2209942
C           1.2183524     0.0043685    -0.4860933
C           2.4637525     0.1030848    -1.3441441
H           2.3582369     0.9736510    -1.9975087
H           2.4888303    -0.7975230    -1.9699705
N           6.1787054    -0.1356082     0.8446647
H           6.0810341    -1.0925456     1.2083200
H           7.0822005     0.2139003     1.1823692