26
082_C14H12_0-2-10-8 (-165,) energy =    -540.7098188
C           1.4695408    -1.3401776     0.1122235
H           1.7860548    -1.6336562     1.1123840
C           2.2529122    -0.4966680    -0.5902946
H           1.9115059    -0.1533514    -1.5660326
C           5.9794562     1.2599896     0.6061844
H           6.9203964     1.7153259     0.9026483
C           5.2691050     1.7579799    -0.4869547
H           5.6527007     2.6069693    -1.0467541
C           4.0650134     1.1677093    -0.8654771
H           3.5153313     1.5627735    -1.7169239
C           3.5352542     0.0704671    -0.1609573
C           4.2722847    -0.4259060     0.9321753
H           3.9083539    -1.2911299     1.4786491
C           5.4745784     0.1631820     1.3112526
H           6.0264891    -0.2399834     2.1564659
C          -2.3132120    -3.0315826    -1.0001334
H          -3.2735664    -3.4626928    -1.2693031
C          -1.5602414    -2.3380449    -1.9528058
H          -1.9340772    -2.2319979    -2.9679470
C          -0.3283241    -1.7873292    -1.6142021
H           0.2469745    -1.2676440    -2.3748049
C           0.1850691    -1.9088562    -0.3077329
C          -0.5829176    -2.6180033     0.6348010
H          -0.2029559    -2.7289587     1.6479826
C          -1.8164136    -3.1707731     0.2963206
H          -2.3890325    -3.7109079     1.0457465
26
082_C14H12_0-2-10-8 (-150,) energy =    -540.7091612
C           1.4680942    -1.3032079     0.0915535
H           1.7533278    -1.4991882     1.1248455
C           2.2901051    -0.5453001    -0.6615597
H           1.9819363    -0.2679703    -1.6690708
C           5.9480988     1.2659846     0.6547476
H           6.8693928     1.7357431     0.9882654
C           5.1793881     1.8586731    -0.3489937
H           5.4969254     2.7965158    -0.7973145
C           4.0018637     1.2507588    -0.7793194
H           3.4050408     1.7198489    -1.5582959
C           3.5601412     0.0404087    -0.2140646
C           4.3524176    -0.5490467     0.7889052
H           4.0512704    -1.5018937     1.2151879
C           5.5295932     0.0580413     1.2191055
H           6.1293292    -0.4184836     1.9903276
C          -2.3115293    -3.0297465    -0.9759712
H          -3.2715948    -3.4682522    -1.2340469
C          -1.5067264    -2.4621139    -1.9686852
H          -1.8396454    -2.4621530    -3.0034156
C          -0.2746316    -1.9032471    -1.6438868
H           0.3429988    -1.4844496    -2.4330859
C           0.1858620    -1.8896302    -0.3126290
C          -0.6335037    -2.4735904     0.6711790
H          -0.2942375    -2.4791564     1.7046404
C          -1.8671612    -3.0346241     0.3467348
H          -2.4807009    -3.4764648     1.1275186
26
082_C14H12_0-2-10-8 (-135,) energy =    -540.7075477
C           1.4717297    -1.2722361     0.0674875
H           1.7263229    -1.3767949     1.1222182
C           2.3330135    -0.6074988    -0.7266877
H           2.0613872    -0.4070243    -1.7629321
C           5.9176717     1.2690259     0.6988962
H           6.8176534     1.7540025     1.0672283
C           5.0844640     1.9282441    -0.2081248
H           5.3297876     2.9331785    -0.5418350
C           3.9337766     1.3033394    -0.6843600
H           3.2851904     1.8245787    -1.3846696
C           3.5896278     0.0059842    -0.2645618
C           4.4380854    -0.6450456     0.6480103
H           4.1972920    -1.6558377     0.9659592
C           5.5899867    -0.0202779     1.1235761
H           6.2377605    -0.5446792     1.8213806
C          -2.3114994    -3.0186110    -0.9547426
H          -3.2728729    -3.4606135    -1.2017998
C          -1.4605447    -2.5712092    -1.9701243
H          -1.7585767    -2.6686690    -3.0108847
C          -0.2265765    -2.0085010    -1.6588830
H           0.4277766    -1.6846132    -2.4630748
C           0.1889187    -1.8708938    -0.3202885
C          -0.6761387    -2.3348868     0.6874092
H          -0.3715238    -2.2434230     1.7275915
C          -1.9118895    -2.8995580     0.3768354
H          -2.5618211    -3.2475246     1.1754464
26
082_C14H12_0-2-10-8 (-120,) energy =    -540.7051145
C           1.4629839    -1.2335561     0.0540846
H           1.6771618    -1.2400164     1.1230358
C           2.3686709    -0.6665851    -0.7632291
H           2.1468726    -0.5658594    -1.8259657
C           5.9015957     1.2709137     0.7224845
H           6.7870138     1.7681966     1.1094220
C           4.9859772     1.9762017    -0.0627474
H           5.1523296     3.0281010    -0.2803532
C           3.8520586     1.3380256    -0.5618579
H           3.1379164     1.8942936    -1.1643388
C           3.6125985    -0.0201070    -0.2906835
C           4.5357274    -0.7144349     0.5077211
H           4.3616703    -1.7652923     0.7227469
C           5.6721377    -0.0760682     1.0060390
H           6.3799767    -0.6333672     1.6142709
C          -2.3115021    -3.0130722    -0.9469496
H          -3.2710253    -3.4619452    -1.1888163
C          -1.4120592    -2.6829680    -1.9653974
H          -1.6704374    -2.8788596    -3.0028756
C          -0.1804216    -2.1116020    -1.6601704
H           0.5118880    -1.8791894    -2.4642727
C           0.1837126    -1.8484528    -0.3258772
C          -0.7292635    -2.1954500     0.6859940
H          -0.4643137    -2.0058507     1.7237655
C          -1.9630524    -2.7682397     0.3817046
H          -2.6511657    -3.0243285     1.1830704
26
082_C14H12_0-2-10-8 (-105,) energy =    -540.7027190
C           1.4225703    -1.1660425     0.0575840
H           1.5675480    -1.0437564     1.1312015
C           2.3906101    -0.7172525    -0.7582933
H           2.2571178    -0.7691925    -1.8395384
C           5.9141802     1.2660616     0.7093854
H           6.7993658     1.7705064     1.0876281
C           4.9083393     1.9965467     0.0722328
H           5.0047519     3.0734600    -0.0398693
C           3.7723841     1.3499259    -0.4135404
H           2.9879179     1.9236760    -0.9006059
C           3.6234104    -0.0396683    -0.2765340
C           4.6357040    -0.7604008     0.3745388
H           4.5265060    -1.8350253     0.4929826
C           5.7739662    -0.1139006     0.8600245
H           6.5499086    -0.6899922     1.3576523
C          -2.3122066    -3.0258775    -0.9532712
H          -3.2617990    -3.4943061    -1.1972919
C          -1.3649573    -2.7912391    -1.9547184
H          -1.5764786    -3.0804365    -2.9809322
C          -0.1462880    -2.1942491    -1.6463272
H           0.5812987    -2.0334439    -2.4366588
C           0.1573493    -1.8106602    -0.3264776
C          -0.8036291    -2.0608621     0.6687895
H          -0.5860898    -1.7763735     1.6958612
C          -2.0248883    -2.6589288     0.3616149
H          -2.7507949    -2.8389593     1.1502233
26
082_C14H12_0-2-10-8 (-90,) energy =    -540.7017225
C           1.3572039    -1.0657288     0.0598749
H           1.4030186    -0.7688361     1.1079182
C           2.4107060    -0.7712353    -0.7179000
H           2.4061167    -1.0502962    -1.7724109
C           5.9409067     1.2622319     0.6733073
H           6.8329825     1.7755501     1.0223568
C           4.8588793     1.9924880     0.1789121
H           4.9041550     3.0779906     0.1434861
C           3.7134916     1.3328220    -0.2690687
H           2.8714971     1.9037103    -0.6515299
C           3.6291301    -0.0670450    -0.2273796
C           4.7242057    -0.7898950     0.2693607
H           4.6706150    -1.8747339     0.3071755
C           5.8700120    -0.1311639     0.7176538
H           6.7066001    -0.7077480     1.1040422
C          -2.3052495    -3.0588842    -0.9654845
H          -3.2363520    -3.5615082    -1.2127063
C          -1.3272043    -2.8662977    -1.9461490
H          -1.4973242    -3.2200387    -2.9597664
C          -0.1332464    -2.2230824    -1.6343740
H           0.6126162    -2.0846532    -2.4117637
C           0.1163443    -1.7537964    -0.3310474
C          -0.8776657    -1.9566514     0.6421047
H          -0.7041883    -1.6016648     1.6555328
C          -2.0745335    -2.6008442     0.3316836
H          -2.8259686    -2.7442039     1.1037273
26
082_C14H12_0-2-10-8 (-75,) energy =    -540.7027843
C           1.3066128    -0.9758436     0.0505593
H           1.2723602    -0.5225206     1.0415456
C           2.4306685    -0.8195891    -0.6679624
H           2.5258968    -1.3015490    -1.6415638
C           5.9487740     1.2677251     0.6623169
H           6.8418147     1.7932669     0.9899962
C           4.8006172     1.9812328     0.3169525
H           4.7964626     3.0669160     0.3705745
C           3.6550195     1.3046730    -0.1062835
H           2.7642507     1.8616436    -0.3839529
C           3.6331747    -0.0963872    -0.1766947
C           4.8016151    -0.8014853     0.1545374
H           4.8042253    -1.8867141     0.0899075
C           5.9458574    -0.1266485     0.5784587
H           6.8367752    -0.6902084     0.8435295
C          -2.2906336    -3.0847285    -0.9707074
H          -3.2050301    -3.6175754    -1.2169504
C          -1.2784677    -2.9448403    -1.9253303
H          -1.4060286    -3.3681524    -2.9183221
C          -0.1065958    -2.2614709    -1.6152369
H           0.6624906    -2.1557292    -2.3749488
C           0.0873690    -1.7007835    -0.3387002
C          -0.9429059    -1.8466477     0.6067819
H          -0.8140256    -1.4177342     1.5980271
C          -2.1176231    -2.5308508     0.2978611
H          -2.8974114    -2.6299389     1.0484408
26
082_C14H12_0-2-10-8 (-60,) energy =    -540.7051343
C           1.2825030    -0.9185383     0.0286606
H           1.1965465    -0.3414352     0.9497287
C           2.4579209    -0.8835946    -0.6247260
H           2.6072675    -1.5138239    -1.5015414
C           5.9452929     1.2709038     0.6576971
H           6.8318091     1.8143732     0.9734280
C           4.7427057     1.9478962     0.4506601
H           4.6906220     3.0237688     0.5967783
C           3.6064433     1.2499933     0.0392771
H           2.6754081     1.7803609    -0.1415588
C           3.6462896    -0.1407176    -0.1509205
C           4.8716627    -0.8047499     0.0314298
H           4.9258158    -1.8776583    -0.1371113
C           6.0062730    -0.1085805     0.4436624
H           6.9409258    -0.6424369     0.5952174
C          -2.2837828    -3.0876616    -0.9678545
H          -3.1905194    -3.6359591    -1.2084131
C          -1.2367678    -3.0184361    -1.8920954
H          -1.3300404    -3.5112357    -2.8564322
C          -0.0751528    -2.3143358    -1.5898337
H           0.7195689    -2.2581246    -2.3281754
C           0.0740489    -1.6634667    -0.3503266
C          -0.9924732    -1.7363291     0.5634313
H          -0.8991410    -1.2354878     1.5244610
C          -2.1567398    -2.4409674     0.2618818
H          -2.9647886    -2.4833224     0.9875054
26
082_C14H12_0-2-10-8 (-45,) energy =    -540.7075643
C           1.2701239    -0.8876731     0.0086782
H           1.1501295    -0.2277121     0.8680424
C           2.4799953    -0.9362809    -0.5815409
H           2.6578307    -1.6527259    -1.3830520
C           5.9435597     1.2754286     0.6526788
H           6.8246553     1.8327128     0.9591493
C           4.6967182     1.9023145     0.6052344
H           4.6054173     2.9536969     0.8656554
C           3.5675600     1.1899929     0.2038663
H           2.6046154     1.6893238     0.1396913
C           3.6570638    -0.1713171    -0.1364411
C           4.9249449    -0.7795573    -0.1149102
H           5.0172101    -1.8246299    -0.4015315
C           6.0536360    -0.0683427     0.2868049
H           7.0217434    -0.5619513     0.3106231
C          -2.2855847    -3.0811545    -0.9686504
H          -3.1905314    -3.6343080    -1.2047377
C          -1.1911424    -3.1170473    -1.8382813
H          -1.2455747    -3.6970009    -2.7559894
C          -0.0316924    -2.4070376    -1.5421782
H           0.8003554    -2.4338459    -2.2398717
C           0.0684603    -1.6445148    -0.3623233
C          -1.0455662    -1.6131630     0.4961878
H          -0.9909014    -1.0256138     1.4099415
C          -2.2077382    -2.3232557     0.2002641
H          -3.0527220    -2.2831928     0.8826613
26
082_C14H12_0-2-10-8 (-30,) energy =    -540.7091863
C           1.2471446    -0.8524423    -0.0039257
H           1.0880647    -0.1222485     0.7892494
C           2.4863978    -0.9699579    -0.5215386
H           2.6844434    -1.7511155    -1.2546130
C           5.9549254     1.2760749     0.6282192
H           6.8386447     1.8388588     0.9163416
C           4.6861969     1.8502875     0.7439440
H           4.5812482     2.8666154     1.1148761
C           3.5526146     1.1341464     0.3677498
H           2.5743707     1.6024434     0.4313144
C           3.6582973    -0.1829982    -0.1173864
C           4.9449615    -0.7360735    -0.2525337
H           5.0487038    -1.7450854    -0.6452309
C           6.0793416    -0.0199983     0.1237885
H           7.0619281    -0.4728941     0.0200082
C          -2.2831502    -3.0889614    -0.9726554
H          -3.1823664    -3.6519635    -1.2072811
C          -1.1437209    -3.2160615    -1.7732956
H          -1.1572101    -3.8772241    -2.6359548
C           0.0088880    -2.4942438    -1.4795662
H           0.8768310    -2.5939732    -2.1248891
C           0.0571796    -1.6276597    -0.3699807
C          -1.1017731    -1.5059238     0.4188733
H          -1.0879127    -0.8377495     1.2770843
C          -2.2569955    -2.2276964     0.1248793
H          -3.1369763    -2.1162404     0.7529624
26
082_C14H12_0-2-10-8 (-15,) energy =    -540.7098265
C           1.2212377    -0.8181312    -0.0168917
H           1.0211158    -0.0259023     0.7034992
C           2.4847665    -0.9856703    -0.4576014
H           2.7001467    -1.8120668    -1.1337006
C           5.9760081     1.2734042     0.5964265
H           6.8670480     1.8364639     0.8602327
C           4.7081571     1.7816517     0.8952007
H           4.6111812     2.7456145     1.3880506
C           3.5639190     1.0668051     0.5549251
H           2.5882397     1.4904152     0.7746420
C           3.6553271    -0.1842068    -0.0864078
C           4.9394173    -0.6724217    -0.3926506
H           5.0329913    -1.6314893    -0.8972819
C           6.0858059     0.0429105    -0.0527475
H           7.0651382    -0.3605143    -0.2965954
C          -2.2800476    -3.1021260    -0.9830025
H          -3.1729489    -3.6752802    -1.2171009
C          -1.0926975    -3.3286870    -1.6861856
H          -1.0619304    -4.0785354    -2.4725067
C           0.0523572    -2.5952227    -1.3924706
H           0.9586153    -2.7782688    -1.9622870
C           0.0454858    -1.6149749    -0.3803050
C          -1.1608679    -1.3958447     0.3109072
H          -1.1904303    -0.6403071     1.0928995
C          -2.3085798    -2.1292768     0.0168042
H          -3.2254757    -1.9399491     0.5688244
26
082_C14H12_0-2-10-8 (0,) energy =    -540.7098627
C           1.2072744    -0.7959995    -0.0367383
H           0.9793603     0.0601996     0.5965916
C           2.4884372    -1.0092186    -0.4000960
H           2.7174156    -1.8733942    -1.0221268
C           5.9838642     1.2850717     0.5651429
H           6.8767765     1.8568837     0.8024792
C           4.7367129     1.6905518     1.0510784
H           4.6589492     2.5814389     1.6689465
C           3.5903695     0.9624027     0.7499343
H           2.6335595     1.2983404     1.1385883
C           3.6570976    -0.1970040    -0.0483157
C           4.9211608    -0.5893127    -0.5276776
H           4.9965781    -1.4814526    -1.1454622
C           6.0699261     0.1397746    -0.2269200
H           7.0322725    -0.1875423    -0.6116332
C          -2.2796707    -3.1070945    -0.9917838
H          -3.1697815    -3.6850251    -1.2247381
C          -1.0516379    -3.4391281    -1.5726969
H          -0.9861932    -4.2770528    -2.2619805
C           0.0907368    -2.7014821    -1.2794474
H           1.0307811    -2.9726645    -1.7508196
C           0.0396390    -1.6086225    -0.3912932
C          -1.2063852    -1.2865317     0.1789619
H          -1.2701632    -0.4445452     0.8647036
C          -2.3512242    -2.0247816    -0.1142109
H          -3.2992889    -1.7535962     0.3428471
26
082_C14H12_0-2-10-8 (15,) energy =    -540.7098264
C           1.2184238    -0.8112689    -0.0317201
H           0.9953167     0.0719857     0.5655234
C           2.4978421    -1.0397516    -0.3918277
H           2.7184766    -1.8895923    -1.0364181
C           5.9683738     1.3013833     0.5452170
H           6.8530182     1.8897025     0.7729722
C           4.7845449     1.5040040     1.2611112
H           4.7484468     2.2483472     2.0524216
C           3.6506118     0.7495248     0.9764671
H           2.7483012     0.9062311     1.5603749
C           3.6652540    -0.2245098    -0.0412544
C           4.8700960    -0.4247711    -0.7407682
H           4.9073168    -1.1790310    -1.5236717
C           6.0061927     0.3299603    -0.4560243
H           6.9218853     0.1579036    -1.0156679
C          -2.2888580    -3.0800004    -1.0119344
H          -3.1846766    -3.6441721    -1.2564811
C          -1.0264860    -3.5857930    -1.3377804
H          -0.9389334    -4.5484732    -1.8348716
C           0.1235579    -2.8687140    -1.0238237
H           1.0935252    -3.2888333    -1.2731630
C           0.0447820    -1.6187165    -0.3782649
C          -1.2339762    -1.1298363    -0.0512781
H          -1.3187300    -0.1692123     0.4519687
C          -2.3863506    -1.8478665    -0.3644774
H          -3.3607871    -1.4444138    -0.1018763
26
082_C14H12_0-2-10-8 (30,) energy =    -540.7091862
C           1.2332303    -0.8050633    -0.0734005
H           1.0185152     0.1337987     0.4365513
C           2.5183875    -1.0939245    -0.3604728
H           2.7453372    -1.9857044    -0.9436095
C           5.9408696     1.3277524     0.5445418
H           6.8122725     1.9373244     0.7676512
C           4.8147407     1.3809772     1.3702523
H           4.8116581     2.0270776     2.2443633
C           3.6996556     0.5947586     1.0912542
H           2.8425671     0.6198889     1.7583942
C           3.6760634    -0.2522810    -0.0327260
C           4.8280777    -0.3135833    -0.8381875
H           4.8368216    -0.9778700    -1.6994199
C           5.9438847     0.4728744    -0.5595025
H           6.8180730     0.4159023    -1.2028651
C          -2.2918274    -3.0667521    -1.0017345
H          -3.1914785    -3.6295290    -1.2352264
C          -1.0316824    -3.6405649    -1.1973437
H          -0.9502682    -4.6543960    -1.5807716
C           0.1233562    -2.9257693    -0.8960794
H           1.0917098    -3.3966845    -1.0383697
C           0.0509892    -1.6109124    -0.3957102
C          -1.2257183    -1.0534005    -0.1970198
H          -1.3042368    -0.0414261     0.1940218
C          -2.3831826    -1.7688877    -0.4974990
H          -3.3563696    -1.3124743    -0.3366393
26
082_C14H12_0-2-10-8 (45,) energy =    -540.7075643
C           1.2452120    -0.8000830    -0.1153155
H           1.0376892     0.1854850     0.3018703
C           2.5337147    -1.1402959    -0.3116120
H           2.7708890    -2.0791100    -0.8113296
C           5.9238176     1.3481280     0.5403470
H           6.7871154     1.9724989     0.7541164
C           4.8695302     1.2702667     1.4526368
H           4.9138592     1.8271231     2.3851093
C           3.7656993     0.4626852     1.1827081
H           2.9612410     0.3816802     1.9086563
C           3.6818560    -0.2665377    -0.0165344
C           4.7661460    -0.2030385    -0.9099756
H           4.7305965    -0.7820977    -1.8299052
C           5.8692278     0.6044365    -0.6410284
H           6.6898393     0.6506127    -1.3523039
C          -2.2936332    -3.0610717    -0.9949179
H          -3.1965128    -3.6231723    -1.2173950
C          -1.0416544    -3.6785822    -1.0760699
H          -0.9699199    -4.7256120    -1.3590528
C           0.1170116    -2.9639480    -0.7881388
H           1.0781838    -3.4672304    -0.8396991
C           0.0565584    -1.6069047    -0.4162563
C          -1.2120380    -1.0047820    -0.3314062
H          -1.2811922     0.0410029    -0.0403719
C          -2.3733320    -1.7198023    -0.6187760
H          -3.3404150    -1.2289421    -0.5475393
26
082_C14H12_0-2-10-8 (60,) energy =    -540.7051343
C           1.2460460    -0.7889089    -0.1523572
H           1.0395531     0.2342378     0.1628225
C           2.5334669    -1.1679058    -0.2454521
H           2.7787406    -2.1548733    -0.6379346
C           5.9234712     1.3517044     0.5342635
H           6.7870286     1.9813117     0.7312832
C           4.9609843     1.1493736     1.5242556
H           5.0761741     1.6148751     2.4997584
C           3.8555603     0.3357468     1.2723569
H           3.1167653     0.1619185     2.0500330
C           3.6809302    -0.2722899     0.0187091
C           4.6737530    -0.0845989    -0.9584243
H           4.5665638    -0.5697536    -1.9256873
C           5.7770980     0.7289580    -0.7080185
H           6.5260575     0.8750545    -1.4821439
C          -2.2933470    -3.0620668    -1.0017792
H          -3.1958252    -3.6272003    -1.2181665
C          -1.0529205    -3.7060737    -0.9585813
H          -0.9899849    -4.7762319    -1.1382959
C           0.1051481    -2.9872087    -0.6782528
H           1.0567265    -3.5090124    -0.6322840
C           0.0552801    -1.6007551    -0.4384720
C          -1.2017057    -0.9713142    -0.4773306
H          -1.2620303     0.0983150    -0.2892436
C          -2.3626101    -1.6901235    -0.7576724
H          -3.3209706    -1.1781390    -0.7839704
26
082_C14H12_0-2-10-8 (75,) energy =    -540.7027816
C           1.2559913    -0.7765896    -0.2125491
H           1.0544891     0.2785181    -0.0254408
C           2.5355116    -1.1832303    -0.1800504
H           2.7831473    -2.2182691    -0.4189868
C           5.9345418     1.3521880     0.5391010
H           6.7995695     1.9847839     0.7197804
C           5.0735022     1.0229391     1.5861928
H           5.2676119     1.3948942     2.5889611
C           3.9639814     0.2079375     1.3525943
H           3.2981469    -0.0551744     2.1700566
C           3.6891493    -0.2784476     0.0659339
C           4.5742760     0.0444579    -0.9757318
H           4.3813642    -0.3373165    -1.9751665
C           5.6814936     0.8593005    -0.7434140
H           6.3486585     1.1095549    -1.5643188
C          -2.2860055    -3.0648937    -1.0154472
H          -3.1888487    -3.6335896    -1.2207543
C          -1.0614656    -3.7210769    -0.8560790
H          -1.0115181    -4.8040403    -0.9347394
C           0.0970130    -2.9973810    -0.5901838
H           1.0354784    -3.5273207    -0.4547194
C           0.0632414    -1.5944655    -0.4803955
C          -1.1774958    -0.9518209    -0.6360284
H          -1.2254895     0.1314378    -0.5500562
C          -2.3389103    -1.6754828    -0.9024003
H          -3.2847478    -1.1532021    -1.0201636
26
082_C14H12_0-2-10-8 (90,) energy =    -540.7017164
C           1.2896188    -0.7853649    -0.3201092
H           1.1228055     0.2920176    -0.3312882
C           2.5414237    -1.2200461    -0.1067228
H           2.7522894    -2.2901603    -0.0881029
C           5.9183198     1.3726010     0.5306965
H           6.7722096     2.0252769     0.6920049
C           5.1514608     0.9393499     1.6136133
H           5.4047479     1.2554254     2.6223571
C           4.0549211     0.1012946     1.4060012
H           3.4579774    -0.2330243     2.2504147
C           3.7047754    -0.3147696     0.1126847
C           4.4847964     0.1253894    -0.9673125
H           4.2231996    -0.1898019    -1.9739868
C           5.5814359     0.9635004    -0.7607077
H           6.1711396     1.2986222    -1.6101580
C          -2.2979002    -3.0495721    -0.9839908
H          -3.2125815    -3.6113865    -1.1525572
C          -1.0860815    -3.7194738    -0.7888299
H          -1.0571719    -4.8059320    -0.8054533
C           0.0878839    -3.0043394    -0.5724575
H           1.0178338    -3.5454360    -0.4234154
C           0.0828028    -1.5970413    -0.5452914
C          -1.1442152    -0.9403879    -0.7438354
H          -1.1695640     0.1469042    -0.7267355
C          -2.3215058    -1.6550737    -0.9607500
H          -3.2564156    -1.1216372    -1.1112528
26
082_C14H12_0-2-10-8 (105,) energy =    -540.7027189
C           1.3345220    -0.8092276    -0.4335795
H           1.2230920     0.2554591    -0.6401699
C           2.5431568    -1.2473872    -0.0444725
H           2.6794023    -2.2950783     0.2264703
C           5.8876828     1.3971778     0.5241699
H           6.7266651     2.0723269     0.6703477
C           5.2288957     0.8473851     1.6264478
H           5.5487335     1.0998518     2.6342040
C           4.1524812    -0.0191521     1.4396242
H           3.6370471    -0.4373694     2.3005702
C           3.7182705    -0.3567156     0.1475534
C           4.3814642     0.2103049    -0.9509749
H           4.0482934    -0.0378866    -1.9550533
C           5.4601015     1.0770021    -0.7647590
H           5.9644584     1.5029028    -1.6283741
C          -2.3014688    -3.0312851    -0.9545742
H          -3.2284076    -3.5827484    -1.0863298
C          -1.1051930    -3.7131645    -0.7113613
H          -1.1000208    -4.7987314    -0.6564066
C           0.0847891    -3.0111261    -0.5449141
H           1.0052572    -3.5608666    -0.3706384
C           0.1106452    -1.6053818    -0.6126576
C          -1.1000516    -0.9367992    -0.8652755
H          -1.1004403     0.1492037    -0.9263124
C          -2.2930712    -1.6384339    -1.0324047
H          -3.2152596    -1.0963149    -1.2245993
26
082_C14H12_0-2-10-8 (120,) energy =    -540.7051145
C           1.3616066    -0.8269131    -0.5056130
H           1.2936827     0.2058830    -0.8480885
C           2.5334574    -1.2407687     0.0093791
H           2.6100421    -2.2395464     0.4398764
C           5.8728941     1.4090642     0.5283922
H           6.7083106     2.0904252     0.6655142
C           5.3329429     0.7297077     1.6235196
H           5.7413857     0.8890605     2.6181548
C           4.2637164    -0.1466295     1.4476261
H           3.8412145    -0.6652754     2.3048978
C           3.7153960    -0.3660771     0.1722476
C           4.2611917     0.3303882    -0.9180507
H           3.8462706     0.1675195    -1.9090842
C           5.3330205     1.2065123    -0.7424044
H           5.7479002     1.7290183    -1.6005575
C          -2.3002417    -3.0209206    -0.9445622
H          -3.2336654    -3.5658284    -1.0562171
C          -1.1274993    -3.6976736    -0.5954465
H          -1.1471054    -4.7730777    -0.4385517
C           0.0710656    -3.0046138    -0.4552191
H           0.9748083    -3.5511359    -0.2013474
C           0.1286035    -1.6120921    -0.6545999
C          -1.0584676    -0.9492951    -1.0142895
H          -1.0338569     0.1256248    -1.1787798
C          -2.2595778    -1.6423287    -1.1555470
H          -3.1630485    -1.1050277    -1.4318021
26
082_C14H12_0-2-10-8 (135,) energy =    -540.7075477
C           1.3593444    -0.8249896    -0.5473634
H           1.3151704     0.1712320    -0.9875895
C           2.5013656    -1.1948189     0.0637132
H           2.5425252    -2.1468228     0.5926452
C           5.8937476     1.3895067     0.5288159
H           6.7453989     2.0523950     0.6557297
C           5.4542608     0.5975956     1.5924043
H           5.9582966     0.6487816     2.5540521
C           4.3658077    -0.2564018     1.4270407
H           4.0237465    -0.8649633     2.2609686
C           3.6918414    -0.3378365     0.1954017
C           4.1459209     0.4646539    -0.8658862
H           3.6490927     0.3978130    -1.8299756
C           5.2356699     1.3182089    -0.7007717
H           5.5769948     1.9232898    -1.5367818
C          -2.2992941    -3.0299126    -0.9476409
H          -3.2318854    -3.5778368    -1.0510565
C          -1.1515668    -3.6759257    -0.4778729
H          -1.1897076    -4.7307931    -0.2184433
C           0.0460845    -2.9795609    -0.3478858
H           0.9308187    -3.5044320     0.0007717
C           0.1279643    -1.6129796    -0.6782732
C          -1.0342946    -0.9819604    -1.1578963
H          -0.9908757     0.0717071    -1.4244193
C          -2.2341708    -1.6786548    -1.2894358
H          -3.1177669    -1.1657237    -1.6601529
26
082_C14H12_0-2-10-8 (150,) energy =    -540.7091612
C           1.3440425    -0.8129891    -0.5816510
H           1.3173435     0.1401995    -1.1090773
C           2.4557017    -1.1225916     0.1152483
H           2.4691289    -2.0304745     0.7173518
C           5.9332566     1.3531174     0.5299580
H           6.8111163     1.9827783     0.6464901
C           5.5670703     0.4622809     1.5409019
H           6.1561652     0.3991397     2.4521378
C           4.4446845    -0.3486246     1.3860212
H           4.1619756    -1.0371485     2.1791524
C           3.6574734    -0.2854894     0.2215915
C           4.0468365     0.6100324    -0.7920867
H           3.4760832     0.6509864    -1.7156056
C           5.1687693     1.4204965    -0.6378562
H           5.4548346     2.1000100    -1.4365868
C          -2.2960318    -3.0531919    -0.9523980
H          -3.2239507    -3.6100227    -1.0499812
C          -1.1754894    -3.6488768    -0.3650836
H          -1.2301582    -4.6739857    -0.0077813
C           0.0162405    -2.9414429    -0.2417857
H           0.8799640    -3.4293562     0.2004994
C           0.1196442    -1.6123100    -0.6969777
C          -1.0155082    -1.0327614    -1.2934644
H          -0.9555286    -0.0094169    -1.6572542
C          -2.2092133    -1.7408387    -1.4184778
H          -3.0712102    -1.2672532    -1.8810307
26
082_C14H12_0-2-10-8 (165,) energy =    -540.7098188
C           1.3333415    -0.8051575    -0.6218391
H           1.3266985     0.0923733    -1.2391119