31
190_C13H13N3O2_26-0-2-3 (-165,) energy =    -817.9343254
N           1.5903165    -0.9282328    -0.1087196
H           1.6232416     0.0762634     0.0059531
C           2.7845650    -1.6223691    -0.1804787
N           3.8831505    -0.7779545    -0.0685060
H           3.7448666     0.2121396     0.0931988
O           2.8722126    -2.8354234    -0.3233863
C           7.9530510    -1.4286453    -0.3642934
H           9.0327562    -1.5163194    -0.4294884
C           7.1171749    -2.5400675    -0.4963501
H           7.5368214    -3.5277172    -0.6687888
C           5.7378975    -2.3900058    -0.4057217
H           5.0548409    -3.2221702    -0.4973039
C           5.2429522    -1.0940714    -0.1834268
N           6.0294758    -0.0153349    -0.0532598
C           7.3517857    -0.1923534    -0.1427955
H           7.9551030     0.7071524    -0.0309580
C          -2.3335161    -2.3014415     0.5558581
H          -3.3562662    -2.6226594     0.7304355
C          -2.0172175    -0.9400906     0.6331536
H          -2.7919097    -0.2188172     0.8675151
C          -0.7089111    -0.5210650     0.4111171
O          -0.2824368     0.7866389     0.4629899
C          -1.2345641     1.7947141     0.7643159
H          -2.0325703     1.8278381     0.0117250
H          -0.6873881     2.7391393     0.7539013
H          -1.6779642     1.6414574     1.7564558
C           0.3053312    -1.4608042     0.1067398
C          -0.0255406    -2.8153794     0.0248387
H           0.7518976    -3.5271571    -0.2142141
C          -1.3416095    -3.2282195     0.2546624
H          -1.5818952    -4.2855058     0.1904126
31
190_C13H13N3O2_26-0-2-3 (-150,) energy =    -817.9327088
N           1.5351785    -0.9417112    -0.3687611
H           1.5750062     0.0634071    -0.2556915
C           2.7383061    -1.6340321    -0.3595653
N           3.8192346    -0.7991745    -0.1089597
H           3.6623215     0.1753023     0.1172787
O           2.8369168    -2.8408281    -0.5379140
C           7.9043696    -1.4070383    -0.2437412
H           8.9866642    -1.4850746    -0.2601370
C           7.0852638    -2.5092596    -0.4996197
H           7.5210986    -3.4796803    -0.7222404
C           5.7019271    -2.3721731    -0.4672247
H           5.0303844    -3.1987096    -0.6503289
C           5.1870841    -1.0979162    -0.1773716
N           5.9566562    -0.0283359     0.0720912
C           7.2831918    -0.1929875     0.0380346
H           7.8731135     0.6979482     0.2471916
C          -2.2947791    -2.3059028     0.7349799
H          -3.2919128    -2.6273032     1.0215477
C          -1.9815860    -0.9417753     0.7473000
H          -2.7326264    -0.2188165     1.0449195
C          -0.7057722    -0.5219466     0.3815001
O          -0.2836634     0.7880119     0.3617299
C          -1.2084102     1.7997741     0.7288272
H          -2.0771265     1.8085156     0.0583990
H          -0.6716878     2.7459476     0.6386523
H          -1.5504468     1.6721183     1.7638426
C           0.2767187    -1.4647818    -0.0035927
C          -0.0528825    -2.8213770    -0.0244543
H           0.6993228    -3.5343817    -0.3328619
C          -1.3338657    -3.2356733     0.3529258
H          -1.5732251    -4.2949711     0.3364904
31
190_C13H13N3O2_26-0-2-3 (-135,) energy =    -817.9299095
N           1.4941699    -0.9745849    -0.6297702
H           1.5478413     0.0320785    -0.5282720
C           2.7094401    -1.6580229    -0.5689408
N           3.7574741    -0.8425650    -0.1692247
H           3.5664722     0.1030894     0.1381696
O           2.8282833    -2.8503111    -0.8134101
C           7.8541085    -1.3874987    -0.1121237
H           8.9367287    -1.4505315    -0.0710536
C           7.0707319    -2.4729474    -0.5109536
H           7.5355205    -3.4147961    -0.7903514
C           5.6855422    -2.3559499    -0.5478107
H           5.0402659    -3.1727523    -0.8380908
C           5.1332801    -1.1180642    -0.1809009
N           5.8679036    -0.0656362     0.2063734
C           7.1968754    -0.2107061     0.2379135
H           7.7581592     0.6649998     0.5596586
C          -2.2033193    -2.2961344     0.9041085
H          -3.1654450    -2.6083302     1.2997676
C          -1.8941844    -0.9323465     0.8451956
H          -2.6129778    -0.2014544     1.1980622
C          -0.6631407    -0.5226208     0.3395229
O          -0.2462924     0.7854411     0.2424650
C          -1.1296802     1.8078939     0.6757510
H          -2.0615000     1.8019384     0.0961881
H          -0.6051989     2.7504299     0.5084220
H          -1.3658857     1.7067328     1.7428243
C           0.2753012    -1.4768341    -0.1169659
C          -0.0516014    -2.8326893    -0.0675086
H           0.6667241    -3.5530191    -0.4365189
C          -1.2845206    -3.2376590     0.4525548
H          -1.5220446    -4.2968144     0.4902337
31
190_C13H13N3O2_26-0-2-3 (-120,) energy =    -817.9260821
N           1.4220990    -1.0096829    -0.8876631
H           1.4762064     0.0002747    -0.8105170
C           2.6597612    -1.6712350    -0.8071879
N           3.6569225    -0.8780883    -0.2661202
H           3.4190525     0.0306319     0.1118988
O           2.8163128    -2.8370692    -1.1357833
C           7.7502974    -1.3619030     0.0373254
H           8.8284691    -1.4122942     0.1501661
C           7.0204541    -2.4197446    -0.5094822
H           7.5235476    -3.3261961    -0.8355697
C           5.6389034    -2.3205120    -0.6347659
H           5.0323401    -3.1183048    -1.0393045
C           5.0373406    -1.1282135    -0.2019898
N           5.7194823    -0.1028388     0.3267535
C           7.0457325    -0.2302699     0.4407686
H           7.5646303     0.6216682     0.8769660
C          -2.0714709    -2.2908770     1.0992240
H          -2.9806358    -2.5955179     1.6094210
C          -1.7785888    -0.9281943     0.9720222
H          -2.4556920    -0.1904101     1.3876696
C          -0.6146917    -0.5277363     0.3198956
O          -0.2167831     0.7786424     0.1493148
C          -1.0590008     1.8082359     0.6435186
H          -2.0468319     1.7785609     0.1665438
H          -0.5641789     2.7485802     0.3937970
H          -1.1801235     1.7382940     1.7322219
C           0.2682174    -1.4906039    -0.2184130
C          -0.0428837    -2.8452070    -0.0985698
H           0.6321147    -3.5726735    -0.5326293
C          -1.2048298    -3.2417920     0.5696695
H          -1.4309902    -4.3001855     0.6605374
31
190_C13H13N3O2_26-0-2-3 (-105,) energy =    -817.9217924
N           1.3524968    -1.0469362    -1.1586721
H           1.4068820    -0.0334551    -1.1225661
C           2.6194180    -1.6774123    -1.0590856
N           3.5517546    -0.9104599    -0.3870890
H           3.2558658    -0.0418812     0.0414119
O           2.8287014    -2.8044696    -1.4742763
C           7.6174649    -1.3437468     0.2182931
H           8.6837388    -1.3838248     0.4162533
C           6.9601714    -2.3696388    -0.4641930
H           7.5093642    -3.2398365    -0.8137085
C           5.5913068    -2.2847272    -0.6960193
H           5.0385926    -3.0595530    -1.2081858
C           4.9292066    -1.1395923    -0.2269042
N           5.5409981    -0.1453555     0.4307594
C           6.8561320    -0.2580647     0.6447529
H           7.3177548     0.5670889     1.1844419
C          -1.8828614    -2.2533928     1.2691232
H          -2.7261323    -2.5421794     1.8897375
C          -1.6042630    -0.8951527     1.0788849
H          -2.2251596    -0.1458312     1.5570632
C          -0.5233191    -0.5135766     0.2865865
O          -0.1397051     0.7863810     0.0468635
C          -0.9199318     1.8315450     0.6061957
H          -1.9544192     1.7954542     0.2418929
H          -0.4533874     2.7632806     0.2811610
H          -0.9204674     1.7879952     1.7030174
C           0.2835545    -1.4917674    -0.3348102
C          -0.0127579    -2.8417418    -0.1471375
H           0.6050249    -3.5818625    -0.6431184
C          -1.0867594    -3.2205266     0.6627115
H          -1.3023795    -4.2755751     0.8039410
31
190_C13H13N3O2_26-0-2-3 (-90,) energy =    -817.9225957
N           1.6712428     0.0200127    -0.1814584
H           1.2713603     0.6227348    -0.8978534
C           2.8321467    -0.6064681    -0.7406960
N           3.8097793    -0.7867436     0.2062010
H           3.6217042    -0.4406195     1.1393108
O           2.9540506    -0.8405216    -1.9308147
C           7.5476643    -2.5430211     0.0734853
H           8.5364609    -2.9879543     0.1190907
C           6.8222143    -2.4914652    -1.1184896
H           7.2381893    -2.8997646    -2.0356771
C           5.5586734    -1.9098772    -1.1376610
H           4.9644835    -1.8386072    -2.0379275
C           5.0668248    -1.3994757     0.0736630
N           5.7468294    -1.4383257     1.2272722
C           6.9606140    -1.9986538     1.2137924
H           7.4843070    -2.0103235     2.1681235
C          -1.5240576    -2.2023210     1.4749508
H          -2.3600758    -2.7483340     1.9019778
C          -1.7601330    -1.0127100     0.7756564
H          -2.7752135    -0.6486336     0.6634697
C          -0.6949889    -0.3042098     0.2246648
O          -0.8098106     0.8638184    -0.4870016
C          -2.1094979     1.3704758    -0.7445890
H          -2.7158572     0.6499880    -1.3086858
H          -1.9673650     2.2725858    -1.3422419
H          -2.6289536     1.6302917     0.1867954
C           0.6299058    -0.7780745     0.3665271
C           0.8473548    -1.9655025     1.0662303
H           1.8586371    -2.3436334     1.1783562
C          -0.2245557    -2.6758235     1.6157413
H          -0.0311684    -3.5997775     2.1527519
31
190_C13H13N3O2_26-0-2-3 (-75,) energy =    -817.9254566
N           1.6372360    -0.0318996    -0.3967221
H           1.2095655     0.5106410    -1.1425950
C           2.8513434    -0.5787407    -0.8847149
N           3.7515438    -0.8374801     0.1235869
H           3.4893616    -0.5823456     1.0681910
O           3.0893922    -0.6784501    -2.0778424
C           7.5056822    -2.5637628     0.1455516
H           8.4914742    -3.0089621     0.2336618
C           6.8855418    -2.3964501    -1.0944823
H           7.3839952    -2.7113694    -2.0074009
C           5.6228824    -1.8177178    -1.1675634
H           5.1094403    -1.6572582    -2.1051618
C           5.0212456    -1.4302755     0.0402091
N           5.5996362    -1.5813767     1.2394630
C           6.8162278    -2.1346694     1.2774536
H           7.2552593    -2.2383124     2.2682880
C          -1.4432127    -2.1356960     1.5939217
H          -2.2525853    -2.6488371     2.1047381
C          -1.7122342    -0.9696639     0.8671118
H          -2.7267342    -0.5906132     0.8171849
C          -0.6806778    -0.3021213     0.2121227
O          -0.8315936     0.8375680    -0.5366345
C          -2.1387561     1.3610924    -0.7106185
H          -2.8004172     0.6333197    -1.1979631
H          -2.0280505     2.2378068    -1.3510834
H          -2.5780585     1.6649962     0.2481827
C           0.6452709    -0.7948502     0.2716421
C           0.8942960    -1.9628582     0.9942230
H           1.8999176    -2.3670052     1.0369153
C          -0.1452235    -2.6285312     1.6524235
H           0.0736564    -3.5366136     2.2063654
31
190_C13H13N3O2_26-0-2-3 (-60,) energy =    -817.9279847
N           1.5827606    -0.1630272    -0.6089952
H           1.1435652     0.3419906    -1.3720951
C           2.8470958    -0.6219976    -1.0169448
N           3.6816451    -0.9324582     0.0358873
H           3.3507213    -0.7577815     0.9772694
O           3.1818927    -0.6158973    -2.1925179
C           7.4973645    -2.5096067     0.2054281
H           8.4929794    -2.9221571     0.3331501
C           6.9578947    -2.2751746    -1.0613400
H           7.5317606    -2.5028923    -1.9557494
C           5.6798692    -1.7409807    -1.1850885
H           5.2269890    -1.5310255    -2.1437580
C           4.9785853    -1.4659507     0.0000344
N           5.4790156    -1.6831952     1.2243247
C           6.7128393    -2.1910575     1.3113816
H           7.0857880    -2.3501004     2.3218225
C          -1.3966494    -2.0656735     1.7020514
H          -2.1830696    -2.5243964     2.2939508
C          -1.6759128    -0.9122911     0.9588757
H          -2.6739566    -0.4893533     0.9772832
C          -0.6740298    -0.3111550     0.2021486
O          -0.8386803     0.8077203    -0.5731457
C          -2.1320213     1.3859843    -0.6551930
H          -2.8638388     0.6755081    -1.0608721
H          -2.0373747     2.2368950    -1.3319403
H          -2.4745807     1.7386228     0.3260415
C           0.6323581    -0.8594511     0.1729088
C           0.8876441    -2.0203157     0.9062380
H           1.8700313    -2.4773822     0.8712542
C          -0.1213838    -2.6161469     1.6708037
H           0.1028281    -3.5178848     2.2328698
31
190_C13H13N3O2_26-0-2-3 (-45,) energy =    -817.9298616
N           1.5296780    -0.3355235    -0.7931992
H           1.0894708     0.1656542    -1.5561441
C           2.8358659    -0.7013146    -1.1250104
N           3.6145612    -1.0537217    -0.0407096
H           3.2249150    -0.9536039     0.8889992
O           3.2475717    -0.6017013    -2.2729582
C           7.5013455    -2.4215102     0.2722548
H           8.5104060    -2.7853899     0.4370611
C           7.0222043    -2.1440384    -1.0101200
H           7.6584843    -2.2877110    -1.8794491
C           5.7244257    -1.6751750    -1.1819413
H           5.3154015    -1.4355908    -2.1531901
C           4.9412174    -1.5073669    -0.0281505
N           5.3832419    -1.7672983     1.2105591
C           6.6373988    -2.2111674     1.3442210
H           6.9603560    -2.4077607     2.3652781
C          -1.3610676    -1.9992859     1.7897096
H          -2.1255997    -2.3956654     2.4511754
C          -1.6324248    -0.8512056     1.0354917
H          -2.6010755    -0.3710070     1.1154163
C          -0.6584783    -0.3263058     0.1906553
O          -0.8193808     0.7790731    -0.6031964
C          -2.0815636     1.4283499    -0.6061836
H          -2.8802433     0.7506621    -0.9342972
H          -1.9915694     2.2542465    -1.3137980
H          -2.3283033     1.8258702     0.3865776
C           0.6114342    -0.9477360     0.0833673
C           0.8531867    -2.1083507     0.8234044
H           1.7985945    -2.6281557     0.7189030
C          -0.1254104    -2.6249198     1.6795277
H           0.0887718    -3.5257337     2.2469084
31
190_C13H13N3O2_26-0-2-3 (-30,) energy =    -817.9311215
N           1.4653951    -0.5310676    -0.9455104
H           1.0298648    -0.0155134    -1.6999335
C           2.8051177    -0.7977231    -1.2086740
N           3.5440358    -1.1817878    -0.1063287
H           3.1084403    -1.1529412     0.8077712
O           3.2692343    -0.6177110    -2.3273882
C           7.4959924    -2.3060250     0.3378437
H           8.5183950    -2.6110301     0.5365298
C           7.0583316    -2.0037687    -0.9537794
H           7.7417514    -2.0679571    -1.7964678
C           5.7414619    -1.6129465    -1.1692543
H           5.3621468    -1.3585296    -2.1486697
C           4.8965096    -1.5457285    -0.0490389
N           5.2982286    -1.8312143     1.1979833
C           6.5715223    -2.1994222     1.3739207
H           6.8595076    -2.4200180     2.4005683
C          -1.3314143    -1.9434346     1.8736057
H          -2.0700414    -2.2781672     2.5958447
C          -1.5852733    -0.7974115     1.1103945
H          -2.5153373    -0.2570489     1.2452694
C          -0.6420804    -0.3504750     0.1886197
O          -0.7907337     0.7453101    -0.6192732
C          -2.0061997     1.4753334    -0.5477709
H          -2.8678422     0.8454644    -0.8038798
H          -1.9144956     2.2808818    -1.2782097
H          -2.1552956     1.9056010     0.4507631
C           0.5778896    -1.0514267     0.0128529
C           0.7970784    -2.2133373     0.7589934
H           1.6956096    -2.7973967     0.5944555
C          -0.1472492    -2.6483279     1.6947364
H           0.0492931    -3.5497574     2.2673280
31
190_C13H13N3O2_26-0-2-3 (-15,) energy =    -817.9319226
N           1.5397162    -1.4992497     1.5983845
H           1.2632313    -1.0818041     2.4792194
C           2.9287299    -1.4220296     1.4633376
N           3.4132478    -1.6257597     0.1878395
H           2.7601239    -1.6640834    -0.5853462
O           3.6269552    -1.2177341     2.4482228
C           7.2560991    -1.6933240    -1.3328898
H           8.2310700    -1.7215330    -1.8088405
C           7.1187409    -1.5841761     0.0529020
H           7.9967997    -1.5245266     0.6907472
C           5.8527986    -1.5504091     0.6269117
H           5.6983160    -1.4608339     1.6926374
C           4.7487971    -1.6296538    -0.2382323
N           4.8608933    -1.7344600    -1.5704127
C           6.0913060    -1.7641762    -2.0928041
H           6.1397219    -1.8491916    -3.1773255
C          -1.5145128    -1.3734134    -1.3060216
H          -2.3109683    -1.3240798    -2.0428049
C          -1.5012403    -0.4550645    -0.2501341
H          -2.2823565     0.2934631    -0.1809213
C          -0.4786447    -0.4963632     0.6975129
O          -0.3686037     0.3442988     1.7698139
C          -1.3739758     1.3289963     1.9625081
H          -1.4127603     2.0298172     1.1189553
H          -1.0929241     1.8685772     2.8682725
H          -2.3618633     0.8712793     2.1007632
C           0.5426569    -1.4716525     0.5980962
C           0.4856534    -2.4067254    -0.4387430
H           1.2244014    -3.2019823    -0.4721506
C          -0.5259583    -2.3471219    -1.4020064
H          -0.5449804    -3.0756110    -2.2067552
31
190_C13H13N3O2_26-0-2-3 (0,) energy =    -817.9321776
N           1.5894330    -1.2595479     1.5487942
H           1.3100749    -0.8669908     2.4388032
C           2.9762970    -1.3075802     1.4363685
N           3.4618149    -1.4634187     0.1532998
H           2.8192204    -1.4037472    -0.6273461
O           3.6760898    -1.2050095     2.4364623
C           7.3019029    -1.8355661    -1.3292826
H           8.2764645    -1.9361157    -1.7961729
C           7.1556394    -1.7743887     0.0585758
H           8.0262176    -1.8266542     0.7072243
C           5.8907300    -1.6434018     0.6207259
H           5.7303916    -1.5837425     1.6876947
C           4.7965429    -1.5799047    -0.2582126
N           4.9172716    -1.6366845    -1.5925802
C           6.1467250    -1.7605001    -2.1033249
H           6.2024094    -1.8013904    -3.1900540
C          -1.5399733    -1.4360554    -1.2671833
H          -2.3584216    -1.4613428    -1.9806169
C          -1.5740832    -0.5128597    -0.2156388
H          -2.4145664     0.1657380    -0.1244259
C          -0.5246642    -0.4598366     0.7002364
O          -0.4581474     0.3925535     1.7679807
C          -1.5416414     1.2838082     1.9884303
H          -1.6681869     1.9744104     1.1450162
H          -1.2840544     1.8507993     2.8844380
H          -2.4799796     0.7399253     2.1567307
C           0.5763956    -1.3424724     0.5751911
C           0.5699339    -2.2864513    -0.4561325
H           1.3713653    -3.0159894    -0.5152422
C          -0.4735709    -2.3203958    -1.3862198
H          -0.4524585    -3.0540606    -2.1862409
31
190_C13H13N3O2_26-0-2-3 (15,) energy =    -817.9318830
N           1.6363938    -1.0279881     1.4824284
H           1.3567960    -0.6702837     2.3865296
C           3.0120394    -1.2066421     1.3971952
N           3.5077214    -1.3353428     0.1140261
H           2.8856551    -1.1785036    -0.6699120
O           3.7005607    -1.1984566     2.4102200
C           7.3262950    -1.9678136    -1.3348753
H           8.2966735    -2.1297588    -1.7931100
C           7.1617594    -1.9604411     0.0522741
H           8.0132401    -2.1182283     0.7091105
C           5.9032147    -1.7469635     0.6033541
H           5.7306457    -1.7225312     1.6698349
C           4.8340860    -1.5478311    -0.2860079
N           4.9724473    -1.5509602    -1.6198420
C           6.1955893    -1.7556352    -2.1196164
H           6.2666129    -1.7486472    -3.2061707
C          -1.5744576    -1.4953953    -1.2046232
H          -2.4162733    -1.5920178    -1.8838455
C          -1.6371169    -0.5647137    -0.1607104
H          -2.5231047     0.0482500    -0.0403329
C          -0.5600817    -0.4209454     0.7111352
O          -0.5168274     0.4454077     1.7699240
C          -1.6580512     1.2491438     2.0303323
H          -1.8729918     1.9213184     1.1898711
H          -1.4110866     1.8415779     2.9128248
H          -2.5427045     0.6337624     2.2385553
C           0.6017231    -1.2169915     0.5505802
C           0.6279609    -2.1687530    -0.4736068
H           1.4811986    -2.8322071    -0.5654333
C          -0.4479836    -2.2952209    -1.3579679
H          -0.4007565    -3.0347122    -2.1516019
31
190_C13H13N3O2_26-0-2-3 (30,) energy =    -817.9311215
N           1.6772275    -0.7851121     1.3874070
H           1.3923811    -0.4671857     2.3052405
C           3.0360397    -1.0796788     1.3419479
N           3.5614894    -1.1828082     0.0684041
H           2.9729347    -0.9515238    -0.7229607
O           3.6930144    -1.1555092     2.3724675
C           7.3473390    -2.1002418    -1.3117836
H           8.3117363    -2.3319474    -1.7523101
C           7.1501743    -2.1130429     0.0710245
H           7.9692439    -2.3576103     0.7423052
C           5.9008598    -1.8071962     0.5992218
H           5.7052287    -1.7932744     1.6619542
C           4.8741729    -1.4985506    -0.3085224
N           5.0441583    -1.4804075    -1.6384555
C           6.2580607    -1.7741616    -2.1159023
H           6.3562757    -1.7459664    -3.1999503
C          -1.6012555    -1.5577174    -1.1461320
H          -2.4623386    -1.7297086    -1.7850368
C          -1.6916358    -0.6251418    -0.1057279
H          -2.6185383    -0.0860541     0.0537638
C          -0.5917372    -0.3864145     0.7141920
O          -0.5718285     0.4889338     1.7672349
C          -1.7642496     1.1923626     2.0814408
H          -2.0762323     1.8396831     1.2519395
H          -1.5278583     1.8080142     2.9508951
H          -2.5816785     0.5039810     2.3318309
C           0.6240600    -1.0856431     0.5057025
C           0.6829335    -2.0383025    -0.5159540
H           1.5830085    -2.6273875    -0.6516240
C          -0.4202487    -2.2621881    -1.3462842
H          -0.3473939    -3.0022228    -2.1375529
31
190_C13H13N3O2_26-0-2-3 (45,) energy =    -817.9298616
N           1.7182316    -0.5584487     1.2754691
H           1.4300349    -0.2563737     2.1989081
C           3.0537376    -0.9664203     1.2786728
N           3.6221341    -1.0428280     0.0227463
H           3.0779037    -0.7371977    -0.7751318
O           3.6624386    -1.1280622     2.3277505
C           7.3618300    -2.2270088    -1.2765899
H           8.3178582    -2.5235987    -1.6958956
C           7.1213370    -2.2636302     0.0988642
H           7.8967404    -2.5929491     0.7855415
C           5.8847476    -1.8720222     0.5999379
H           5.6578643    -1.8720087     1.6566070
C           4.9154070    -1.4560358    -0.3275004
N           5.1274202    -1.4131838    -1.6505899
C           6.3283322    -1.7901556    -2.1016967
H           6.4627465    -1.7384345    -3.1809398
C          -1.6174186    -1.6320358    -1.0733144
H          -2.4948330    -1.8785508    -1.6636849
C          -1.7263035    -0.6956030    -0.0380337
H          -2.6828405    -0.2283962     0.1669480
C          -0.6077187    -0.3626739     0.7207587
O          -0.6019090     0.5251278     1.7646585
C          -1.8289962     1.1319719     2.1397211
H          -2.2368622     1.7442166     1.3253014
H          -1.5976852     1.7727240     2.9922786
H          -2.5729371     0.3816507     2.4370066
C           0.6469350    -0.9678766     0.4563018
C           0.7288840    -1.9203511    -0.5631116
H           1.6659530    -2.4322222    -0.7496703
C          -0.3960686    -2.2426470    -1.3299562
H          -0.3051090    -2.9830333    -2.1191425
31
190_C13H13N3O2_26-0-2-3 (60,) energy =    -817.9279848
N           1.7421176    -0.3467604     1.1298519
H           1.4549817    -0.0409547     2.0541301
C           3.0477045    -0.8636948     1.1917013
N           3.6776297    -0.9054361    -0.0341743
H           3.1907723    -0.5236351    -0.8363085
O           3.5834176    -1.1241346     2.2590725
C           7.3674195    -2.3286867    -1.2323846
H           8.3155081    -2.6817023    -1.6251546
C           7.0640324    -2.4042152     0.1288424
H           7.7805550    -2.8221242     0.8310480
C           5.8400666    -1.9372452     0.5956113
H           5.5672942    -1.9636024     1.6411400
C           4.9482085    -1.4083759    -0.3514078
N           5.2210166    -1.3266953    -1.6611464
C           6.4085234    -1.7773658    -2.0789360
H           6.5947057    -1.6910001    -3.1481658
C          -1.6384104    -1.7175179    -0.9987353
H          -2.5265614    -2.0412425    -1.5331678
C          -1.7569944    -0.7736663     0.0287230
H          -2.7330193    -0.3771223     0.2845267
C          -0.6246741    -0.3455873     0.7160110
O          -0.6256008     0.5594502     1.7460523
C          -1.8711647     1.0780851     2.1858720
H          -2.3724244     1.6422288     1.3890017
H          -1.6401894     1.7503375     3.0139548
H          -2.5363328     0.2790168     2.5379371
C           0.6539168    -0.8606771     0.3873364
C           0.7504555    -1.8145438    -0.6282291
H           1.7132003    -2.2484370    -0.8733328
C          -0.3901530    -2.2357838    -1.3205317
H          -0.2883310    -2.9779933    -2.1067111
31
190_C13H13N3O2_26-0-2-3 (75,) energy =    -817.9254566
N           1.7614791    -0.1691704     0.9475540
H           1.4835749     0.1773235     1.8620429
C           3.0296251    -0.7912166     1.0744190
N           3.7330568    -0.7918754    -0.1084431
H           3.3152011    -0.3295755    -0.9070580
O           3.4708042    -1.1604940     2.1510607
C           7.3851175    -2.3946133    -1.1890780
H           8.3298557    -2.7884911    -1.5497463
C           6.9958975    -2.5312999     0.1451171
H           7.6393908    -3.0399205     0.8580491
C           5.7790428    -2.0093088     0.5709933
H           5.4416719    -2.0804816     1.5954817
C           4.9839482    -1.3637082    -0.3891201
N           5.3395911    -1.2215056    -1.6732048
C           6.5178311    -1.7277674    -2.0515177
H           6.7739192    -1.5903977    -3.1007040
C          -1.6670657    -1.8116616    -0.9031424
H          -2.5648608    -2.2075188    -1.3685376
C          -1.7780338    -0.8513592     0.1096567
H          -2.7592235    -0.5134989     0.4235035
C          -0.6327832    -0.3345837     0.7097211
O          -0.6242510     0.5972419     1.7166636
C          -1.8684745     1.0412958     2.2341056
H          -2.4620306     1.5509751     1.4643251
H          -1.6273807     1.7474427     3.0305412
H          -2.4507941     0.2079355     2.6480716
C           0.6506933    -0.7748835     0.3056317
C           0.7426778    -1.7384680    -0.7000640
H           1.7158267    -2.1025840    -1.0112448
C          -0.4109317    -2.2528291    -1.3013685
H          -0.3131704    -3.0033197    -2.0802015
31
190_C13H13N3O2_26-0-2-3 (90,) energy =    -817.9225957
N           1.7590244    -0.0683129     0.7479066
H           1.5046860     0.3434682     1.6435352
C           2.9853085    -0.7857672     0.9334075
N           3.7776097    -0.7222508    -0.1860113
H           3.4369374    -0.1720515    -0.9651718
O           3.3084175    -1.2880209     1.9961235
C           7.4398977    -2.3903916    -1.1236184
H           8.3949964    -2.7937425    -1.4443389
C           6.9357826    -2.6313393     0.1560496
H           7.4965478    -3.2339690     0.8655250
C           5.7087412    -2.0941117     0.5314316
H           5.2832094    -2.2455478     1.5135782
C           5.0241174    -1.3251780    -0.4223850
N           5.4904928    -1.0816490    -1.6544214
C           6.6747621    -1.6067534    -1.9848606
H           7.0228065    -1.3861216    -2.9924925
C          -1.7269323    -1.9038582    -0.7919324
H          -2.6371153    -2.3510946    -1.1804593
C          -1.8096359    -0.9143944     0.1950020
H          -2.7807753    -0.6056446     0.5652569
C          -0.6485400    -0.3336627     0.6996780
O          -0.6101998     0.6342279     1.6721303
C          -1.8327406     1.0423860     2.2646177
H          -2.5012586     1.5020408     1.5252824
H          -1.5675313     1.7830941     3.0210625
H          -2.3471979     0.1990645     2.7432846
C           0.6198383    -0.7364037     0.2211019
C           0.6841654    -1.7240007    -0.7624478
H           1.6512785    -2.0464670    -1.1352119
C          -0.4833615    -2.3069935    -1.2649551
H          -0.4081959    -3.0767328    -2.0274013
31
190_C13H13N3O2_26-0-2-3 (105,) energy =    -817.9217923
N           1.6004133    -1.3646645     1.4917787
H           1.6684504    -0.3692907     1.6815435
C           2.8133547    -1.9254595     1.0155892
N           3.6210552    -1.0021994     0.3797072
H           3.2690906    -0.0650627     0.2264326
O           3.0721570    -3.1129828     1.1116319
C           7.4940472    -1.1899826    -1.0510895
H           8.5041706    -1.1590971    -1.4465815
C           6.9535721    -2.3609010    -0.5152522
H           7.5393879    -3.2757244    -0.4843288
C           5.6534492    -2.3633028    -0.0209681
H           5.1894053    -3.2482823     0.3908875
C           4.9398493    -1.1562526    -0.0813111
N           5.4397060    -0.0229946    -0.5923918
C           6.6897598    -0.0528137    -1.0662387
H           7.0604964     0.8851973    -1.4760438
C          -2.0524144    -2.0487106    -0.5096980
H          -3.0017012    -2.2048438    -1.0138325
C          -1.7134655    -0.7649134    -0.0674808