34
126_C14H17N3_4-6-13-12 (-165,) energy =    -707.9772096
C           5.2683865     1.9274203     1.6109022
H           5.9121566     2.7817938     1.8029323
C           5.6200637     0.6584858     2.0666082
H           6.5413322     0.4991813     2.6194657
C           4.7721718    -0.4109711     1.8023705
H           5.0714542    -1.3999640     2.1403477
C           3.5646180    -0.2681404     1.0914073
C           3.2303083     1.0253014     0.5861939
C           4.0990155     2.0945482     0.8751885
H           3.8545753     3.0810196     0.4969721
C           1.0824326    -2.8490786     0.6299903
H           0.2227169    -3.2675850     0.1242290
N           1.6280594    -1.6538000     0.2355298
C           2.6635555    -1.4306785     1.0344883
N           2.7822727    -2.4669949     1.9402881
H           3.4138065    -2.4962266     2.7259655
C           1.7751514    -3.3707032     1.6930426
H           1.6536626    -4.2695243     2.2788201
C          -0.1193811     1.9895664    -1.9544338
H           0.3414065     2.7052303    -2.6522026
H          -1.1713557     1.8942801    -2.2516380
C           0.5987008     0.6378787    -2.0582409
H           0.6235282     0.2925443    -3.1000506
H           0.0708212    -0.1196057    -1.4686290
C           2.0289755     0.7243186    -1.5242866
H           2.4805082    -0.2665591    -1.5242983
H           2.6373735     1.3823392    -2.1761512
N           2.0432424     1.2479552    -0.1459515
C           1.4500165     2.5835288    -0.0652940
H           1.9963993     3.3193719    -0.6894290
H           1.5095599     2.9278471     0.9722561
C          -0.0117308     2.5400054    -0.5265204
H          -0.5765027     1.8989678     0.1620955
H          -0.4390860     3.5492632    -0.4641077
34
126_C14H17N3_4-6-13-12 (-150,) energy =    -707.9782283
C           5.3047725     1.8972360     1.5663097
H           5.9599421     2.7457458     1.7458217
C           5.6461852     0.6291555     2.0319781
H           6.5705847     0.4665491     2.5787685
C           4.7853305    -0.4353240     1.7829230
H           5.0635937    -1.4280219     2.1284971
C           3.5761930    -0.2780770     1.0803779
C           3.2481625     1.0116465     0.5699725
C           4.1296926     2.0738645     0.8395617
H           3.8898969     3.0610816     0.4594504
C           1.2107312    -2.9472523     0.5185567
H           0.4619117    -3.4525234    -0.0764329
N           1.8054854    -1.7895786     0.0815084
C           2.6707574    -1.4378949     1.0215668
N           2.6421383    -2.3542121     2.0523741
H           3.1325775    -2.2636372     2.9297168
C           1.7066531    -3.3152811     1.7440194
H           1.4905111    -4.1409346     2.4052354
C          -0.1382582     1.9872825    -1.9162772
H           0.3041227     2.7285443    -2.5989747
H          -1.1911356     1.8820587    -2.2068689
C           0.6027902     0.6518401    -2.0638519
H           0.6238876     0.3357842    -3.1148958
H           0.0919177    -0.1319394    -1.4930271
C           2.0360140     0.7493572    -1.5394303
H           2.5048033    -0.2329185    -1.5700310
H           2.6256626     1.4393195    -2.1755205
N           2.0466556     1.2304517    -0.1446572
C           1.4378107     2.5566060    -0.0250475
H           1.9685141     3.3147283    -0.6357777
H           1.5030327     2.8762058     1.0202050
C          -0.0270694     2.5036008    -0.4755668
H          -0.5768961     1.8374142     0.2013473
H          -0.4693577     3.5042595    -0.3850743
34
126_C14H17N3_4-6-13-12 (-135,) energy =    -707.9783694
C           5.3373213     1.9005136     1.5225427
H           6.0024157     2.7436840     1.6908377
C           5.6689777     0.6343637     1.9996955
H           6.5945006     0.4698736     2.5440541
C           4.7963749    -0.4258629     1.7655426
H           5.0538562    -1.4189225     2.1258053
C           3.5881096    -0.2566645     1.0681000
C           3.2644913     1.0297384     0.5537993
C           4.1572078     2.0860033     0.8043756
H           3.9225085     3.0736568     0.4216538
C           1.3608869    -3.0246590     0.4213992
H           0.7392089    -3.6199752    -0.2337344
N           2.0113987    -1.9047925    -0.0372221
C           2.6788760    -1.4166066     0.9966459
N           2.4777399    -2.2076649     2.1055034
H           2.8287120    -2.0125957     3.0318188
C           1.6305609    -3.2334328     1.7508243
H           1.3066541    -3.9838605     2.4561405
C          -0.1602327     2.0067008    -1.8810134
H           0.2701661     2.7511520    -2.5677603
H          -1.2170385     1.8997873    -2.1562429
C           0.5827354     0.6741345    -2.0454467
H           0.5896612     0.3626942    -3.0979333
H           0.0791899    -0.1141910    -1.4732577
C           2.0234107     0.7734532    -1.5411175
H           2.4951249    -0.2071849    -1.5834101
H           2.6000882     1.4706092    -2.1811929
N           2.0490798     1.2452462    -0.1422056
C           1.4417774     2.5712013    -0.0094077
H           1.9642314     3.3314049    -0.6244774
H           1.5212283     2.8873536     1.0360342
C          -0.0290332     2.5189878    -0.4403835
H          -0.5695844     1.8507879     0.2421823
H          -0.4708616     3.5189890    -0.3409990
34
126_C14H17N3_4-6-13-12 (-120,) energy =    -707.9778741
C           5.3599965     1.9034079     1.5047042
H           6.0260249     2.7452119     1.6766730
C           5.6971717     0.6335932     1.9674991
H           6.6259131     0.4662208     2.5054048
C           4.8227035    -0.4259840     1.7302679
H           5.0734925    -1.4220703     2.0865109
C           3.6123324    -0.2455369     1.0441383
C           3.2801824     1.0432776     0.5471932
C           4.1730173     2.0987924     0.7993183
H           3.9357430     3.0909995     0.4303230
C           1.5197329    -3.1007243     0.3245251
H           1.0312984    -3.7793736    -0.3617479
N           2.2484558    -2.0272240    -0.1314767
C           2.7035425    -1.4096289     0.9464327
N           2.3010256    -2.0724997     2.0811875
H           2.4934265    -1.7774221     3.0275278
C           1.5355816    -3.1512029     1.6957157
H           1.0860711    -3.8241976     2.4102063
C          -0.1816276     2.0026095    -1.8449388
H           0.2428204     2.7324198    -2.5506961
H          -1.2435411     1.8989962    -2.1009249
C           0.5499341     0.6627466    -2.0002161
H           0.5365946     0.3334314    -3.0470375
H           0.0481947    -0.1124212    -1.4078379
C           2.0004151     0.7619007    -1.5234526
H           2.4696725    -0.2205838    -1.5624145
H           2.5664806     1.4481183    -2.1841625
N           2.0537092     1.2548035    -0.1315316
C           1.4551514     2.5856427    -0.0082071
H           1.9733981     3.3333958    -0.6415465
H           1.5521261     2.9161789     1.0313195
C          -0.0226733     2.5367042    -0.4151159
H          -0.5569453     1.8833936     0.2867211
H          -0.4561730     3.5410938    -0.3242793
34
126_C14H17N3_4-6-13-12 (-105,) energy =    -707.9772025
C           5.3898000     1.9082183     1.4915096
H           6.0502266     2.7532335     1.6697056
C           5.7487606     0.6332604     1.9228281
H           6.6873715     0.4668843     2.4435701
C           4.8805052    -0.4314217     1.6808970
H           5.1410518    -1.4308275     2.0198030
C           3.6595826    -0.2462241     1.0199153
C           3.3050683     1.0462838     0.5541654
C           4.1887719     2.1082037     0.8109208
H           3.9373460     3.1051584     0.4649193
C           1.6572916    -3.1551238     0.2561576
H           1.2933514    -3.9093847    -0.4285019
N           2.5006158    -2.1530053    -0.1685074
C           2.7495602    -1.4123773     0.8982024
N           2.1069019    -1.9229302     1.9979883
H           2.1262038    -1.5202842     2.9237849
C           1.3963901    -3.0343336     1.5975505
H           0.7936194    -3.6110921     2.2827949
C          -0.1931386     1.9616521    -1.8034860
H           0.2236746     2.6782747    -2.5269437
H          -1.2580895     1.8547550    -2.0448198
C           0.5353432     0.6185600    -1.9443808
H           0.5085338     0.2707015    -2.9848020
H           0.0378928    -0.1449911    -1.3329753
C           1.9924469     0.7264866    -1.4891022
H           2.4675918    -0.2541678    -1.5221536
H           2.5471286     1.4018681    -2.1698851
N           2.0661048     1.2445570    -0.1065711
C           1.4662517     2.5758093     0.0033001
H           1.9772073     3.3138361    -0.6469013
H           1.5748366     2.9223439     1.0364782
C          -0.0163010     2.5198238    -0.3850597
H          -0.5423471     1.8785471     0.3340241
H          -0.4488666     3.5254968    -0.3057203
34
126_C14H17N3_4-6-13-12 (-90,) energy =    -707.9770104
C           5.4335313     1.9159403     1.4989949
H           6.0837380     2.7661257     1.6899577
C           5.8202338     0.6354154     1.8882147
H           6.7690672     0.4711654     2.3907034
C           4.9635773    -0.4362577     1.6343602
H           5.2405762    -1.4395997     1.9465349
C           3.7315443    -0.2510855     0.9976890
C           3.3490469     1.0470433     0.5734926
C           4.2184102     2.1173345     0.8439419
H           3.9487542     3.1188618     0.5261899
C           1.7791522    -3.1870338     0.2149709
H           1.5255512    -4.0176329    -0.4299902
N           2.7623447    -2.2862902    -0.1322339
C           2.8197304    -1.4156979     0.8610469
N           1.9094287    -1.7330337     1.8358873
H           1.7469028    -1.2015951     2.6788174
C           1.2327212    -2.8641177     1.4311799
H           0.4596339    -3.3186957     2.0322913
C          -0.1940899     1.9039058    -1.7396390
H           0.2080288     2.6061772    -2.4850239
H          -1.2625424     1.7887132    -1.9604009
C           0.5367725     0.5605125    -1.8650680
H           0.4916286     0.1893794    -2.8966608
H           0.0532183    -0.1907642    -1.2275513
C           2.0017844     0.6882481    -1.4407835
H           2.4908885    -0.2859609    -1.4707445
H           2.5357405     1.3559359    -2.1448333
N           2.0995569     1.2332461    -0.0701730
C           1.4931194     2.5618804     0.0276079
H           1.9914797     3.2920880    -0.6407094
H           1.6145836     2.9251945     1.0535651
C           0.0048571     2.4921451    -0.3363887
H          -0.5075156     1.8643272     0.4043075
H          -0.4303670     3.4975629    -0.2706322
34
126_C14H17N3_4-6-13-12 (-75,) energy =    -707.9781464
C           5.4577786     1.9252799     1.5033168
H           6.0975524     2.7830067     1.6955223
C           5.8641324     0.6470523     1.8789861
H           6.8170148     0.4918596     2.3765500
C           5.0196971    -0.4333322     1.6234761
H           5.3081010    -1.4363650     1.9248673
C           3.7851724    -0.2621004     0.9880309
C           3.3739041     1.0377579     0.5936674
C           4.2327514     2.1163181     0.8634880
H           3.9483982     3.1173542     0.5580715
C           1.9380984    -3.2644123     0.2320119
H           1.8043836    -4.1830689    -0.3233704
N           3.0263760    -2.4493767     0.0117055
C           2.8915548    -1.4371358     0.8534083
N           1.7468165    -1.5719879     1.5947864
H           1.3970851    -0.8912578     2.2529448
C           1.1246159    -2.7384541     1.2043104
H           0.2024783    -3.0771771     1.6523953
C          -0.2159278     1.8660291    -1.6641099
H           0.1829508     2.5348694    -2.4411351
H          -1.2903342     1.7620729    -1.8596891
C           0.4893844     0.5066767    -1.7564929
H           0.4155185     0.0991516    -2.7724292
H           0.0072595    -0.2126474    -1.0820077
C           1.9656834     0.6267310    -1.3695757
H           2.4429273    -0.3539732    -1.3802362
H           2.4931357     1.2590603    -2.1095629
N           2.1073687     1.2175076    -0.0221699
C           1.5183844     2.5559344     0.0455238
H           2.0139278     3.2577644    -0.6541987
H           1.6646878     2.9493581     1.0568863
C           0.0221425     2.4973769    -0.2862051
H          -0.4856094     1.9034672     0.4853730
H          -0.3958854     3.5111961    -0.2448085
34
126_C14H17N3_4-6-13-12 (-60,) energy =    -707.9806210
C           5.4839355     1.9059815     1.4841353
H           6.1256074     2.7645072     1.6654912
C           5.8971992     0.6282626     1.8530946
H           6.8574543     0.4737438     2.3365649
C           5.0501269    -0.4527743     1.6135052
H           5.3421864    -1.4561719     1.9085383
C           3.8067231    -0.2857019     0.9926387
C           3.3835624     1.0162748     0.6173743
C           4.2455667     2.0952663     0.8689444
H           3.9540930     3.0964897     0.5718020
C           2.0843744    -3.3786348     0.3564956
H           2.0472302    -4.3742588    -0.0650356
N           3.2106578    -2.5960415     0.2416482
C           2.9276091    -1.4678594     0.8758203
N           1.6514815    -1.4969392     1.3745550
H           1.1781807    -0.7024882     1.7797187
C           1.0982861    -2.7151061     1.0445151
H           0.0959343    -2.9901205     1.3370718
C          -0.2165439     1.8864898    -1.6150085
H           0.1982334     2.5415777    -2.3952206
H          -1.2926403     1.8052600    -1.8114330
C           0.4576818     0.5111793    -1.6981782
H           0.3762211     0.0987466    -2.7114131
H          -0.0439675    -0.1929861    -1.0217385
C           1.9361138     0.5979615    -1.3103962
H           2.3883815    -0.3952504    -1.3110888
H           2.4812674     1.2056773    -2.0573855
N           2.0974413     1.1983849     0.0315502
C           1.5325269     2.5491389     0.0883710
H           2.0403109     3.2342459    -0.6184716
H           1.6899002     2.9479035     1.0958243
C           0.0353733     2.5194001    -0.2406169
H          -0.4856025     1.9416001     0.5348159
H          -0.3609408     3.5419070    -0.2039026
34
126_C14H17N3_4-6-13-12 (-45,) energy =    -707.9835982
C           5.5051946     1.8941933     1.4289469
H           6.1529308     2.7519840     1.5903855
C           5.9219423     0.6165248     1.7948130
H           6.8932554     0.4616948     2.2557807
C           5.0668843    -0.4635121     1.5865509
H           5.3601686    -1.4661756     1.8812511
C           3.8072166    -0.2982434     0.9950596
C           3.3815615     1.0038185     0.6240202
C           4.2510448     2.0814138     0.8456307
H           3.9519348     3.0817372     0.5530018
C           2.1779801    -3.4711376     0.5885903
H           2.2024689    -4.5228551     0.3362600
N           3.3123545    -2.6969230     0.5314696
C           2.9357386    -1.4841994     0.9138462
N           1.5950172    -1.4561850     1.1942655
H           1.0793542    -0.6022544     1.3589885
C           1.0960738    -2.7224229     0.9858633
H           0.0560615    -2.9649496     1.1455416
C          -0.2079930     1.9459460    -1.6002749
H           0.2166932     2.6366440    -2.3433976
H          -1.2802179     1.8696890    -1.8181131
C           0.4721356     0.5774699    -1.7350770
H           0.4125303     0.2138628    -2.7682987
H          -0.0444806    -0.1596343    -1.1061422
C           1.9423508     0.6451272    -1.3131302
H           2.3929916    -0.3491561    -1.3431394
H           2.5053169     1.2798600    -2.0228726
N           2.0792210     1.1877453     0.0576070
C           1.5115045     2.5370984     0.1556354
H           2.0256348     3.2460705    -0.5216242
H           1.6590158     2.8994309     1.1781628
C           0.0196063     2.5182875    -0.1952310
H          -0.5130230     1.9076065     0.5466432
H          -0.3800682     3.5373227    -0.1208968
34
126_C14H17N3_4-6-13-12 (-30,) energy =    -707.9862290
C           5.5194924     1.8758413     1.3433169
H           6.1758893     2.7322988     1.4730037
C           5.9398499     0.5998589     1.7140967
H           6.9249897     0.4463618     2.1455041
C           5.0760816    -0.4791447     1.5509752
H           5.3713099    -1.4792298     1.8510541
C           3.7946833    -0.3170551     1.0019454
C           3.3697974     0.9811484     0.6183892
C           4.2489114     2.0578694     0.7962478
H           3.9421929     3.0545994     0.4985618
C           2.2211370    -3.5347837     0.8638897
H           2.2767276    -4.6128408     0.7917813
N           3.3532193    -2.7597266     0.8457318
C           2.9298029    -1.5062226     0.9596756
N           1.5632675    -1.4601186     1.0331835
H           1.0471594    -0.5883217     1.0185729
C           1.0952784    -2.7517156     0.9732775
H           0.0420288    -2.9856714     1.0157548
C          -0.2038468     2.0096750    -1.5935964
H           0.2257232     2.7601209    -2.2731607
H          -1.2689437     1.9321120    -1.8432413
C           0.5030625     0.6657070    -1.8131815
H           0.4747226     0.3797120    -2.8718051
H          -0.0189439    -0.1243846    -1.2565336
C           1.9613416     0.7215718    -1.3488068
H           2.4266144    -0.2636109    -1.4330899
H           2.5347040     1.4098309    -1.9972911
N           2.0557451     1.1655067     0.0615465
C           1.4641490     2.4985985     0.2387506
H           1.9766772     3.2585618    -0.3809656
H           1.5900319     2.7928806     1.2856863
C          -0.0193158     2.4813663    -0.1450911
H          -0.5591161     1.8115715     0.5383814
H          -0.4379034     3.4861403    -0.0080557
34
126_C14H17N3_4-6-13-12 (-15,) energy =    -707.9877506
C           5.5209143     1.8569238     1.2464182
H           6.1872347     2.7106850     1.3366931
C           5.9405630     0.5852414     1.6365543
H           6.9377512     0.4339512     2.0405008
C           5.0681893    -0.4914803     1.5238330
H           5.3648260    -1.4861987     1.8388980
C           3.7673273    -0.3328873     1.0162246
C           3.3489970     0.9567714     0.6008194
C           4.2387059     2.0318072     0.7273012
H           3.9286615     3.0214446     0.4087384
C           2.2001620    -3.5506545     1.1431335
H           2.2553142    -4.6256943     1.2520308
N           3.3280384    -2.7732702     1.1692133
C           2.9055989    -1.5231091     1.0082104
N           1.5438713    -1.4868980     0.8733484
H           1.0464912    -0.6153645     0.7201800
C           1.0768285    -2.7755239     0.9614488
H           0.0268534    -3.0153776     0.8848619
C          -0.2031111     2.0716576    -1.6021939
H           0.2238715     2.8914357    -2.1980962
H          -1.2578355     1.9890070    -1.8910315
C           0.5474427     0.7715503    -1.9205468
H           0.5574240     0.5827399    -3.0010720
H           0.0296512    -0.0788009    -1.4556756
C           1.9899816     0.8195221    -1.4070532
H           2.4816495    -0.1457308    -1.5569073
H           2.5665934     1.5713231    -1.9772594
N           2.0308102     1.1398635     0.0390274
C           1.3973236     2.4383988     0.3149597
H           1.9016075     3.2629070    -0.2225398
H           1.4902760     2.6423038     1.3864494
C          -0.0740625     2.4155469    -0.1120298
H          -0.6130793     1.6728928     0.4922307
H          -0.5263501     3.3921020     0.1007323
34
126_C14H17N3_4-6-13-12 (0,) energy =    -707.9879878
C           5.5927461     1.7602009     0.9811569
H           6.2980201     2.5840659     0.9130117
C           5.9427195     0.5761107     1.6348862
H           6.9266407     0.4675004     2.0831625
C           5.0305899    -0.4679801     1.7135954
H           5.2844818    -1.3946002     2.2169467
C           3.7457735    -0.3664821     1.1457758
C           3.3943645     0.8331472     0.4846817
C           4.3262752     1.8772477     0.4144132
H           4.0503160     2.7968404    -0.0944635
C           2.0755251    -3.4633327     1.7987435
H           2.0600121    -4.4593979     2.2210484
N           3.1804375    -2.6620711     1.9037395
C           2.8596823    -1.5288563     1.2848842
N           1.5855075    -1.5895166     0.7921002
H           1.1849968    -0.8013568     0.2886323
C           1.0691996    -2.8196934     1.1117683
H           0.0695205    -3.1171074     0.8323208
C          -0.1615057     2.2039069    -1.5455591
H           0.2136667     3.2010603    -1.8185555
H          -1.1853540     2.1360857    -1.9325906
C           0.7322150     1.1354488    -2.1897568
H           0.8035810     1.2896280    -3.2734855
H           0.2898160     0.1409934    -2.0374568
C           2.1394400     1.1562922    -1.5841498
H           2.7472194     0.3402915    -1.9884304
H           2.6405935     2.1021306    -1.8611005
N           2.0805160     0.9913479    -0.1175763
C           1.2820949     2.0547630     0.5254673
H           1.7374604     3.0494704     0.3652407
H           1.2859607     1.8696592     1.6045766
C          -0.1506610     2.0623964    -0.0174099
H          -0.6500388     1.1271631     0.2720235
H          -0.7098777     2.8806536     0.4528265
34
126_C14H17N3_4-6-13-12 (15,) energy =    -707.9877507
C           5.7380288     1.6198567     0.6979392
H           6.5151535     2.3558331     0.5096451
C           5.9710906     0.5462987     1.5573831
H           6.9349414     0.4302537     2.0452062
C           4.9672472    -0.3906670     1.7752515
H           5.1312845    -1.2446128     2.4237825
C           3.7116433    -0.2799451     1.1537657
C           3.4690886     0.8231269     0.2963300
C           4.4939175     1.7545142     0.0829695
H           4.3162909     2.6035817    -0.5685878
C           1.7817274    -3.1123745     2.1925640
H           1.6184862    -3.9554828     2.8506922
N           2.8540033    -2.2759225     2.3589583
C           2.7496707    -1.3636452     1.3976312
N           1.6385331    -1.5936167     0.6319342
H           1.3864360    -0.9826555    -0.1385152
C           1.0104456    -2.7111686     1.1249180
H           0.1026877    -3.1020863     0.6901761
C          -0.2740120     2.1416816    -1.4254028
H          -0.0963321     3.2265091    -1.3933330
H          -1.2721299     1.9989807    -1.8567945
C           0.7969136     1.4844339    -2.3066778
H           0.8231575     1.9525273    -3.2984900
H           0.5579881     0.4227648    -2.4582614
C           2.1804190     1.6005089    -1.6584035
H           2.9396855     1.0961630    -2.2645857
H           2.4530678     2.6712876    -1.6123761
N           2.1741790     0.9817186    -0.3239791
C           1.2027616     1.6505249     0.5729608
H           1.4929490     2.7068163     0.7241545
H           1.2468472     1.1608752     1.5497927
C          -0.2164490     1.5779225     0.0007177
H          -0.5490767     0.5307043    -0.0008987
H          -0.8986789     2.1248721     0.6630560
34
126_C14H17N3_4-6-13-12 (30,) energy =    -707.9862290
C           5.7991746     1.5722788     0.6370453
H           6.5927658     2.2829083     0.4216077
C           6.0202510     0.5079059     1.5091364
H           6.9906859     0.3698583     1.9775089
C           4.9924883    -0.3967793     1.7585363
H           5.1452364    -1.2455878     2.4169957
C           3.7279824    -0.2524219     1.1670351
C           3.5014270     0.8351819     0.2845584
C           4.5491027     1.7327255     0.0384039
H           4.3881579     2.5746797    -0.6259550
C           1.6358444    -2.9190547     2.3336188
H           1.3647018    -3.6499047     3.0838433
N           2.6844390    -2.0552785     2.5259552
C           2.7435540    -1.3145457     1.4253387
N           1.7549896    -1.6700935     0.5471170
H           1.5710059    -1.1512035    -0.3034788
C           1.0375346    -2.6965905     1.1149092
H           0.1995007    -3.1592461     0.6153863
C          -0.2850815     2.0907627    -1.3910168
H          -0.1724853     3.1782800    -1.2721267
H          -1.2665648     1.9244539    -1.8512362
C           0.8354866     1.5672879    -2.2993195
H           0.8495559     2.1122851    -3.2513410
H           0.6612680     0.5087714    -2.5366681
C           2.2011748     1.7095128    -1.6189026
H           2.9936510     1.2950857    -2.2503725
H           2.4151108     2.7869930    -1.4864454
N           2.2129246     0.9926116    -0.3365473
C           1.1908547     1.5349350     0.5888419
H           1.4161480     2.5932939     0.8170867
H           1.2487283     0.9826713     1.5300234
C          -0.2131751     1.4216101    -0.0121577
H          -0.4794109     0.3595282    -0.0998652
H          -0.9360100     1.8739739     0.6778834
34
126_C14H17N3_4-6-13-12 (45,) energy =    -707.9835982
C           5.8437840     1.5280546     0.5743985
H           6.6499554     2.2174391     0.3371935
C           6.0587557     0.4646263     1.4478287
H           7.0358741     0.3034558     1.8941201
C           5.0105548    -0.4101082     1.7254825
H           5.1580047    -1.2578928     2.3870840
C           3.7381968    -0.2311371     1.1660062
C           3.5194803     0.8512044     0.2744281
C           4.5860170     1.7193406     0.0002626
H           4.4347865     2.5626504    -0.6643440
C           1.4551165    -2.7091610     2.4045230
H           1.0596555    -3.3145605     3.2091855
N           2.4821098    -1.8208326     2.6181403
C           2.7263610    -1.2679238     1.4377232
N           1.8759773    -1.7610261     0.4834428
H           1.7945368    -1.3685161    -0.4447489
C           1.0529328    -2.6828338     1.0905693
H           0.2925354    -3.2225154     0.5460672
C          -0.3082178     2.0471880    -1.3498709
H          -0.2521435     3.1298553    -1.1645584
H          -1.2759147     1.8599316    -1.8309450
C           0.8446786     1.6357660    -2.2745792
H           0.8394854     2.2355697    -3.1932228
H           0.7255114     0.5854612    -2.5740145
C           2.1976023     1.8021416    -1.5737687
H           3.0091861     1.4584820    -2.2232579
H           2.3657169     2.8790180    -1.3795349
N           2.2341210     1.0172811    -0.3346848
C           1.1783876     1.4515441     0.6081477
H           1.3458917     2.5067593     0.8945261
H           1.2550634     0.8545916     1.5193819
C          -0.2125066     1.2997826    -0.0135715
H          -0.4183679     0.2322095    -0.1674635
H          -0.9635958     1.6713758     0.6943083
34
126_C14H17N3_4-6-13-12 (60,) energy =    -707.9806210
C           5.8633297     1.4964419     0.5268994
H           6.6769083     2.1722345     0.2757161
C           6.0774674     0.4301610     1.3967683
H           7.0595928     0.2522154     1.8251083
C           5.0164874    -0.4234926     1.6953887
H           5.1629961    -1.2723366     2.3565611
C           3.7395430    -0.2205429     1.1590449
C           3.5201960     0.8650221     0.2710863
C           4.5991867     1.7133525    -0.0233179
H           4.4513367     2.5620817    -0.6817241
C           1.2689341    -2.5181762     2.4058042
H           0.7399070    -2.9909902     3.2224515
N           2.2575281    -1.5892359     2.6379965
C           2.7016805    -1.2339749     1.4415009
N           2.0161047    -1.8907359     0.4532019
H           2.0949401    -1.6830883    -0.5316797
C           1.0913725    -2.7140072     1.0581657
H           0.4305766    -3.3520511     0.4905560
C          -0.3383977     2.0108045    -1.3100611
H          -0.3208747     3.0883202    -1.0896887
H          -1.2975641     1.8054119    -1.8009560
C           0.8300714     1.6692570    -2.2433421
H           0.8059785     2.2962432    -3.1434757
H           0.7479972     0.6247773    -2.5733289
C           2.1767447     1.8587516    -1.5354242
H           2.9960426     1.5537722    -2.1945755
H           2.3164688     2.9352333    -1.3151819
N           2.2352368     1.0461197    -0.3175963
C           1.1634104     1.4136987     0.6328959
H           1.2883810     2.4681916     0.9442321
H           1.2590150     0.7994448     1.5298734
C          -0.2182432     1.2242560     0.0013811
H          -0.3761517     0.1545593    -0.1880542
H          -0.9864204     1.5419246     0.7171827
34
126_C14H17N3_4-6-13-12 (75,) energy =    -707.9781464
C           5.8596011     1.4918755     0.4896443
H           6.6779886     2.1597418     0.2324577
C           6.0723104     0.4192494     1.3523984
H           7.0570063     0.2300444     1.7697892
C           5.0040369    -0.4231952     1.6600753
H           5.1515971    -1.2767095     2.3156880
C           3.7262619    -0.2057441     1.1336076
C           3.5041166     0.8933225     0.2635492
C           4.5914489     1.7290004    -0.0415147
H           4.4440828     2.5846112    -0.6914549
C           1.1118671    -2.3924463     2.3085140
H           0.4488271    -2.7484491     3.0856233
N           2.0168797    -1.3825967     2.5500130
C           2.6685218    -1.2063391     1.4117828
N           2.2009895    -2.0610478     0.4478640
H           2.4960994    -2.0657485    -0.5174161
C           1.2006160    -2.8255358     1.0091654
H           0.6775513    -3.5884687     0.4522202
C          -0.3722549     2.0269972    -1.2723547
H          -0.3615381     3.1085868    -1.0716848
H          -1.3353309     1.8048372    -1.7483132
C           0.7873426     1.6786438    -2.2146301
H           0.7472635     2.2908792    -3.1244937
H           0.7090424     0.6281170    -2.5246875
C           2.1421814     1.8872991    -1.5268167
H           2.9540125     1.5731731    -2.1911177
H           2.2809798     2.9684663    -1.3279390
N           2.2156865     1.0965952    -0.2970789
C           1.1580347     1.4795988     0.6617088
H           1.2798113     2.5432689     0.9434948
H           1.2699367     0.8870749     1.5705813
C          -0.2298253     1.2657420     0.0520482
H          -0.3777694     0.1910678    -0.1152528
H          -0.9925865     1.5905932     0.7706067
34
126_C14H17N3_4-6-13-12 (90,) energy =    -707.9770103
C           5.8361694     1.4816779     0.4832927