16
261_C6H7NO2_3-0-1-11 (-165,) energy =    -438.0375619
C           0.7528792    -0.8352363     0.0452710
N           2.0609311    -0.9543525    -0.3858784
H           2.3408750    -1.7948991    -0.8738847
C          -0.1294515    -2.0281207    -0.2818460
H          -0.1394849    -2.7090416     0.5775426
H           0.2060615    -2.5887004    -1.1607899
H          -1.1510813    -1.6786096    -0.4443902
C           4.6087303     1.2872433     0.8511000
H           5.0724283     2.1215178     1.3592321
C           3.2028706     0.9916404     0.7937451
H           2.3798822     1.5318854     1.2305010
C           3.1081012    -0.1467918     0.0484127
O           4.3330801    -0.5746636    -0.3632753
C           5.2484424     0.3220459     0.1430887
H           6.2785501     0.1147171    -0.0986369
O           0.3602738     0.1274547     0.6845564
16
261_C6H7NO2_3-0-1-11 (-150,) energy =    -438.0350330
C           0.8448019    -0.8253325     0.1265198
N           2.0272645    -0.6600640    -0.5823897
H           2.2503839    -1.3567517    -1.2826761
C           0.0621182    -2.0754068    -0.2358756
H          -0.9933880    -1.9194800    -0.0051549
H           0.4287838    -2.9053134     0.3801455
H           0.1656496    -2.3602262    -1.2887491
C           4.7729982     1.1425917     0.9254989
H           5.3161918     1.8027611     1.5875289
C           3.3585271     0.8837857     0.9442364
H           2.6051221     1.2887514     1.5991747
C           3.1465259    -0.0091577    -0.0638174
O           4.3048316    -0.3124260    -0.7107868
C           5.3006383     0.4063484    -0.0852255
H           6.2912392     0.2697236    -0.4885202
O           0.5196310    -0.0743246     1.0300675
16
261_C6H7NO2_3-0-1-11 (-135,) energy =    -438.0306689
C           0.7767093    -0.7436633     0.0581950
N           1.9381467    -0.5072898    -0.6823484
H           2.1738483    -1.2160899    -1.3684570
C           0.1394039    -2.1011894    -0.1775845
H          -0.8985328    -2.0810126     0.1590967
H           0.6865205    -2.8412133     0.4191084
H           0.1766907    -2.4189359    -1.2259487
C           4.7410807     1.0635031     0.9795768
H           5.3009651     1.6653563     1.6821132
C           3.3127674     0.8995771     0.9368656
H           2.5623839     1.3422922     1.5712051
C           3.0821475     0.0537116    -0.1064459
O           4.2410758    -0.3070461    -0.7201958
C           5.2576755     0.3254435    -0.0352866
H           6.2515582     0.1359907    -0.4078311
O           0.3971758     0.0280290     0.9191143
16
261_C6H7NO2_3-0-1-11 (-120,) energy =    -438.0248597
C           0.7299958    -0.6748006     0.0004963
N           1.8582897    -0.3404374    -0.7765326
H           2.0858990    -1.0350327    -1.4818228
C           0.2624398    -2.1124346    -0.1298929
H          -0.7469819    -2.2118290     0.2729533
H           0.9434523    -2.7354456     0.4629957
H           0.2832397    -2.4827177    -1.1614696
C           4.7239191     0.9738520     1.0046569
H           5.3047261     1.5164642     1.7378271
C           3.2893929     0.9189715     0.9133184
H           2.5547115     1.4042009     1.5357756
C           3.0293523     0.1167186    -0.1565332
O           4.1770205    -0.3176411    -0.7425980
C           5.2160998     0.2231554    -0.0129798
H           6.2044685    -0.0277031    -0.3632185
O           0.2867137     0.0928581     0.8301681
16
261_C6H7NO2_3-0-1-11 (-105,) energy =    -438.0184765
C           0.6761011    -0.6170157    -0.0519527
N           1.7746483    -0.1805886    -0.8508580
H           1.9974070    -0.8467640    -1.5867620
C           0.4044556    -2.1087039    -0.0779845
H          -0.5531899    -2.3224545     0.3997064
H           1.2066121    -2.5976270     0.4889153
H           0.4122899    -2.5291202    -1.0905606
C           4.6827298     0.8835803     1.0328205
H           5.2790302     1.3710594     1.7918366
C           3.2514919     0.9337488     0.8988677
H           2.5365239     1.4622995     1.5099738
C           2.9649821     0.1728943    -0.1942145
O           4.0963438    -0.3356741    -0.7532159
C           5.1498072     0.1181228     0.0142501
H           6.1282300    -0.1914097    -0.3165375
O           0.1302912     0.1417957     0.7172833
16
261_C6H7NO2_3-0-1-11 (-90,) energy =    -438.0177908
C           0.6993174    -0.6260647    -0.3217229
N           1.8841963    -0.4060825    -1.1080835
H           1.6406478     0.3035070    -1.8046558
C           0.5637394    -2.0365157     0.2028207
H          -0.1993736    -2.0828527     0.9820694
H           1.5141536    -2.4323476     0.5726305
H           0.2532240    -2.6645211    -0.6409181
C           4.5991461     0.7034694     1.0425232
H           5.1105034     1.1175351     1.9003695
C           3.1819561     0.5866677     0.8514916
H           2.3949237     0.9124328     1.5167902
C           3.0113157     0.0155268    -0.3773675
O           4.2229928    -0.2324511    -0.9585649
C           5.1769739     0.2089849    -0.0846998
H           6.1976152     0.1096587    -0.4206110
O          -0.1962010     0.1908435    -0.2960408
16
261_C6H7NO2_3-0-1-11 (-75,) energy =    -438.0234412
C           0.6438923    -0.6272010    -0.4188345
N           1.8383439    -0.3206893    -1.1294460
H           1.6072380     0.3969279    -1.8199644
C           0.6391435    -1.9807582     0.2591194
H          -0.1197811    -2.0067717     1.0436015
H           1.6163846    -2.2525731     0.6663150
H           0.3763757    -2.7202830    -0.5066405
C           4.5890925     0.6096877     1.0555417
H           5.1154072     0.9639072     1.9309223
C           3.1686869     0.5234517     0.8738393
H           2.3947879     0.8162269     1.5694303
C           2.9762247     0.0308019    -0.3852463
O           4.1786493    -0.1964088    -0.9943049
C           5.1479095     0.1779189    -0.1066198
H           6.1634662     0.0865583    -0.4597265
O          -0.3532191     0.0516516    -0.5605199
16
261_C6H7NO2_3-0-1-11 (-60,) energy =    -438.0280060
C           0.6003867    -0.6618958    -0.4994654
N           1.7884710    -0.2217442    -1.1196285
H           1.5598840     0.5053772    -1.7981390
C           0.7071032    -1.9579844     0.2791547
H          -0.0601319    -1.9865650     1.0557285
H           1.6942956    -2.1179600     0.7178757
H           0.5095640    -2.7731461    -0.4269209
C           4.5744627     0.5523194     1.0772440
H           5.1153863     0.8669918     1.9587858
C           3.1520344     0.5162101     0.8999858
H           2.3904979     0.8111692     1.6082208
C           2.9372124     0.0598686    -0.3692109
O           4.1311507    -0.1881060    -0.9900399
C           5.1142551     0.1320621    -0.0986028
H           6.1252899     0.0153421    -0.4573751
O          -0.4632357    -0.1336752    -0.7623320
16
261_C6H7NO2_3-0-1-11 (-45,) energy =    -438.0311101
C           0.8661981    -0.8136940    -0.4622412
N           2.0368319    -0.2662237    -1.0045414
H           1.8070087     0.4436312    -1.6980275
C           1.0321783    -2.0263057     0.4336511
H           0.2801785    -1.9975915     1.2257678
H           2.0289912    -2.1187948     0.8677163
H           0.8343360    -2.9119241    -0.1811143
C           4.8910115     0.3902983     1.1369972
H           5.4605036     0.6817472     2.0084542
C           3.4656368     0.4064153     0.9876868
H           2.7291609     0.7256791     1.7116586
C           3.2074304    -0.0405216    -0.2767867
O           4.3810547    -0.3284224    -0.9225675
C           5.3913482    -0.0473077    -0.0504053
H           6.3905149    -0.2015915    -0.4279530
O          -0.2225633    -0.4171465    -0.8367206
16
261_C6H7NO2_3-0-1-11 (-30,) energy =    -438.0334080
C           0.5963300    -0.8357896    -0.5485059
N           1.6100712     0.0651813    -0.8964748
H           1.2329880     0.9159718    -1.3026064
C           1.0581623    -2.1397635     0.0706094
H           0.1810245    -2.7518306     0.2824989
H           1.6193160    -1.9683883     0.9959079
H           1.7228860    -2.6674503    -0.6210958
C           4.6740910     0.6294804     0.9625639
H           5.3564119     1.0471100     1.6897636
C           3.2881132     0.9481575     0.7893888
H           2.6968887     1.6527036     1.3575688
C           2.8398170     0.1761064    -0.2433101
O           3.8638318    -0.6040459    -0.7223834
C           4.9625717    -0.3196985     0.0300773
H           5.8550298    -0.8744697    -0.2165282
O          -0.5618959    -0.5919870    -0.8320268
16
261_C6H7NO2_3-0-1-11 (-15,) energy =    -438.0348853
C           0.5971692    -0.8592486    -0.5827754
N           1.5653259     0.1225756    -0.7910671
H           1.2008935     0.9503726    -1.2502157
C           1.0681147    -2.1186613     0.1174456
H           0.2117370    -2.7817438     0.2430442
H           1.5054461    -1.8903031     1.0957095
H           1.8398509    -2.6190236    -0.4765527
C           4.6967758     0.6024826     0.9683413
H           5.4088426     0.9962364     1.6801344
C           3.3102585     0.9419045     0.8490444
H           2.7476591     1.6418111     1.4508531
C           2.8154775     0.1966655    -0.1819532
O           3.8136745    -0.5869304    -0.7118548
C           4.9404559    -0.3326028     0.0091994
H           5.8159759    -0.8956638    -0.2763975
O          -0.5359422    -0.6974758    -0.9989919
16
261_C6H7NO2_3-0-1-11 (0,) energy =    -438.0355345
C           0.6099323    -0.9084129    -0.6808895
N           1.5197447     0.1424484    -0.7614623
H           1.1964497     0.9170279    -1.3311526
C           1.0551420    -2.1165604     0.1201904
H           0.2117502    -2.8031292     0.1995678
H           1.3972389    -1.8287353     1.1199791
H           1.8898422    -2.6194155    -0.3797050
C           4.6890376     0.5676502     0.9388289
H           5.4140131     0.9350832     1.6516388
C           3.2985343     0.9020546     0.8632619
H           2.7439654     1.5724754     1.5046341
C           2.7853898     0.1988518    -0.1876959
O           3.7781958    -0.5556670    -0.7725355
C           4.9180384    -0.3222094    -0.0662181
H           5.7921387    -0.8631923    -0.3957809
O          -0.4663792    -0.8298384    -1.2460543
16
261_C6H7NO2_3-0-1-11 (15,) energy =    -438.0354931
C           0.6160007    -0.9291716    -0.7143769
N           1.4573340     0.1829375    -0.6855473
H           1.1787770     0.9055263    -1.3425949
C           1.0171179    -2.0918667     0.1729660
H           0.1909300    -2.8032485     0.1966574
H           1.2521101    -1.7548760     1.1877806
H           1.9095076    -2.5878421    -0.2241257
C           4.6933370     0.5318108     0.9040611
H           5.4447332     0.8664264     1.6055502
C           3.3011761     0.8680316     0.8958626
H           2.7706665     1.5078633     1.5867556
C           2.7486257     0.2151028    -0.1666438
O           3.7187903    -0.5112686    -0.8231029
C           4.8846494    -0.3084511    -0.1503814
H           5.7467081    -0.8290848    -0.5392888
O          -0.3897350    -0.9179996    -1.4010057
16
261_C6H7NO2_3-0-1-11 (30,) energy =    -438.0344684
C           0.6806390    -0.9564240    -0.7551881
N           1.4423311     0.2116065    -0.6171652
H           1.2067458     0.8897216    -1.3381897
C           0.9901990    -2.0692249     0.2273159
H           0.2018700    -2.8192119     0.1540197
H           1.0494346    -1.6828304     1.2497381
H           1.9532813    -2.5371730    -0.0050720
C           4.7220708     0.5139181     0.8964444
H           5.4897244     0.8210077     1.5929110
C           3.3271657     0.8368451     0.9417450
H           2.8098894     1.4368325     1.6768583
C           2.7519391     0.2318554    -0.1361402
O           3.7091742    -0.4526168    -0.8535360
C           4.8922615    -0.2697567    -0.2039315
H           5.7480177    -0.7593435    -0.6436993
O          -0.2200075    -1.0063008    -1.5718297
16
261_C6H7NO2_3-0-1-11 (45,) energy =    -438.0320620
C           0.7432576    -0.9924562    -0.7887338
N           1.4178099     0.2200664    -0.5405681
H           1.2019877     0.8799119    -1.2871979
C           0.9267450    -2.0698751     0.2623458
H           0.1926008    -2.8556801     0.0808460
H           0.7944136    -1.6515547     1.2648881
H           1.9322098    -2.5032750     0.2145726
C           4.7511063     0.5107713     0.8620422
H           5.5400423     0.8041726     1.5403764
C           3.3551807     0.8161237     0.9689258
H           2.8581915     1.3853755     1.7414260
C           2.7485003     0.2421449    -0.1079128
O           3.6850285    -0.4087833    -0.8807116
C           4.8900609    -0.2341604    -0.2690305
H           5.7343136    -0.6978603    -0.7564822
O          -0.0286223    -1.0839675    -1.7234400
16
261_C6H7NO2_3-0-1-11 (60,) energy =    -438.0287315
C           0.8048348    -1.0866858    -0.7900455
N           1.4361160     0.1503245    -0.5001311
H           1.2343859     0.7889099    -1.2708940
C           0.7849000    -2.0828203     0.3502084
H           0.6133611    -3.0868086    -0.0418421
H          -0.0528310    -1.8147011     1.0047581
H           1.6985249    -2.0611420     0.9503534
C           4.8177637     0.4249604     0.7957101
H           5.6249108     0.6735679     1.4705226
C           3.4169562     0.6562950     0.9917902
H           2.9333501     1.1156572     1.8419790
C           2.7858349     0.1831049    -0.1194394
O           3.7107667    -0.3344529    -0.9984754
C           4.9343499    -0.1754980    -0.4205426
H           5.7736928    -0.5372500    -0.9949767
O           0.1602997    -1.2253791    -1.8096673
16
261_C6H7NO2_3-0-1-11 (75,) energy =    -438.0238978
C           0.8973987    -1.1778622    -0.7764410
N           1.4447042     0.1054320    -0.4500463
H           1.2554879     0.7063965    -1.2555102
C           0.6682507    -2.0803759     0.4153292
H           0.5427631    -3.1137039     0.0870397
H          -0.2574143    -1.7464205     0.8987448
H           1.4724904    -2.0097017     1.1534325
C           4.8546386     0.4126496     0.7719524
H           5.6707508     0.6271645     1.4476963
C           3.4514865     0.5537936     1.0297769
H           2.9744469     0.8993373     1.9357056
C           2.8078688     0.1742794    -0.1098817
O           3.7259038    -0.2002267    -1.0642822
C           4.9597692    -0.0418016    -0.5067527
H           5.7956569    -0.2888213    -1.1435541
O           0.4499798    -1.3983708    -1.8812882
16
261_C6H7NO2_3-0-1-11 (90,) energy =    -438.0179680
C           0.9850970    -1.2694041    -0.7414824
N           1.4541025     0.0631036    -0.4128126
H           1.2716596     0.6168822    -1.2541813
C           0.5120717    -2.0594393     0.4551983
H           0.3611822    -3.1063204     0.1862517
H          -0.4425266    -1.6239423     0.7732922
H           1.2046377    -1.9767850     1.2988729
C           4.8871464     0.4007601     0.7413153
H           5.7139268     0.5763184     1.4153854
C           3.4875259     0.4500266     1.0493477
H           3.0245305     0.6757828     1.9992228
C           2.8263758     0.1718049    -0.1095349
O           3.7286504    -0.0508356    -1.1230395
C           4.9722657     0.1017129    -0.5835170
H           5.7971909    -0.0247907    -1.2680772
O           0.7855728    -1.5967891    -1.8889745
16
261_C6H7NO2_3-0-1-11 (105,) energy =    -438.0184765
C           0.9391666    -1.2398568     0.6524899
N           2.3383714    -1.5185353     0.6604084
H           2.5849393    -2.2440663    -0.0087528
C           0.2040872    -1.6343671    -0.6138564
H          -0.8736336    -1.5617703    -0.4582678
H           0.4583462    -2.6425680    -0.9617189
H           0.5027799    -0.9288103    -1.3992529
C           4.4624845     1.4094771     0.4312684
H           4.8462415     2.4032877     0.6166995
C           3.3073119     0.8056603     1.0394537
H           2.6408063     1.2221444     1.7785803
C           3.2238778    -0.4406574     0.4958241
O           4.2332666    -0.6629323    -0.3889602
C           4.9932849     0.4888180    -0.4126580
H           5.8519176     0.4614004    -1.0642275
O           0.4351556    -0.5769734     1.5311204
16
261_C6H7NO2_3-0-1-11 (120,) energy =    -438.0248597
C           0.9451302    -1.1839027     0.5761967
N           2.3262283    -1.4512381     0.4775958
H           2.5552754    -2.1521488    -0.2209485
C           0.1013698    -1.7314482    -0.5598767
H          -0.9523259    -1.7244066    -0.2756707
H           0.3914181    -2.7432940    -0.8660329
H           0.2400588    -1.0681930    -1.4226024
C           4.5396615     1.4144160     0.4994807
H           4.9390907     2.3893942     0.7427409
C           3.3289713     0.8292098     1.0103496
H           2.6262117     1.2413708     1.7166851
C           3.2450623    -0.3944003     0.4174413
O           4.3045004    -0.6222547    -0.4041174
C           5.0967629     0.5059163    -0.3405430
H           5.9916781     0.4748831    -0.9410718
O           0.5085328    -0.4286406     1.4206586
16
261_C6H7NO2_3-0-1-11 (135,) energy =    -438.0306689
C           0.9391140    -1.1275855     0.4922752
N           2.3007724    -1.3682765     0.2890401
H           2.5243004    -2.0513511    -0.4265943
C           0.0184457    -1.8153361    -0.4996786
H          -0.9928949    -1.8566976    -0.0915754
H           0.3471185    -2.8272308    -0.7632306
H           0.0009051    -1.2161658    -1.4182168
C           4.5948080     1.4139010     0.5763442
H           5.0085310     2.3645547     0.8835044
C           3.3331190     0.8552541     0.9823381
H           2.5976804     1.2650489     1.6551351
C           3.2492398    -0.3420084     0.3368027
O           4.3543831    -0.5778147    -0.4201502
C           5.1761485     0.5186278    -0.2615561
H           6.1055631     0.4803815    -0.8067235
O           0.5464545    -0.3209699     1.3143907
16
261_C6H7NO2_3-0-1-11 (150,) energy =    -438.0350329
C           0.9427524    -1.0564773     0.3877491
N           2.2856779    -1.2740967     0.1097281
H           2.5082736    -1.9723865    -0.5891291
C          -0.0162075    -1.8907187    -0.4435432
H          -0.9550577    -2.0099952     0.1004858
H           0.3820574    -2.8781872    -0.7017645
H          -0.2260673    -1.3525871    -1.3757688
C           4.6702827     1.3896733     0.6390699
H           5.1055390     2.3080841     1.0081764
C           3.3640930     0.8746509     0.9500054
H           2.6051988     1.2952852     1.5885265
C           3.2661115    -0.2923654     0.2522014
O           4.4031982    -0.5481414    -0.4505286
C           5.2599122     0.5024914    -0.2019252
H           6.2164950     0.4447137    -0.6961057
O           0.5728557    -0.1957684     1.1678126
16
261_C6H7NO2_3-0-1-11 (165,) energy =    -438.0375620
C           0.9322631    -1.0038269     0.2869058
N           2.2513431    -1.1775092    -0.0884153
H           2.4788090    -1.8989909    -0.7597888
C          -0.0441281    -1.9545198    -0.3849715
H          -0.8649118    -2.1640545     0.3040973
H           0.4147057    -2.8978774    -0.6994174
H          -0.4653458    -1.4641456    -1.2705920
C           4.7233333     1.3394826     0.6857846
H           5.1791997     2.2224888     1.1120384
C           3.3732392     0.8886708     0.8887944
H           2.5945697     1.3321344     1.4862364
C           3.2650776    -0.2548558     0.1532468
O           4.4331627    -0.5503885    -0.4803363
C           5.3226420     0.4457783    -0.1414126
H           6.3062574     0.3517492    -0.5729462
O           0.5810885    -0.1209414     1.0529404
16
261_C6H7NO2_3-0-1-11 (180,) energy =    -438.0382855
C           0.8048846    -0.9313794     0.1696023
N           2.1166423    -1.0815770    -0.2306816
H           2.3760213    -1.8665678    -0.8121375
C          -0.1423079    -2.0104164    -0.3284827
H          -0.5920704    -2.5108321     0.5347657
H           0.3342542    -2.7625619    -0.9648924
H          -0.9532874    -1.5347457    -0.8884000
C           4.6388506     1.3002911     0.7702755
H           5.1007569     2.1593462     1.2370373
C           3.2523822     0.9273129     0.8434216
H           2.4446769     1.4214361     1.3564997
C           3.1517567    -0.2158426     0.1058605
O           4.3563384    -0.5790526    -0.4146407
C           5.2633429     0.3687232     0.0057167
H           6.2768503     0.2174955    -0.3297140
O           0.4354507    -0.0027716     0.8713856
