21
211_C7H10O2S2_17-0-1-3 (-165,) energy =   -1219.5176034
S           2.5128105    -1.8884728     0.2999850
C           4.0066924    -0.8057683     0.3670025
H           3.8056083    -0.0437422    -0.3955631
C           5.2177028    -1.6459289    -0.0497343
H           5.0710503    -2.0924043    -1.0356957
H           5.4028248    -2.4472547     0.6733155
H           6.1039656    -1.0027860    -0.0816206
C           4.1507378    -0.1638929     1.7451820
H           3.2780507     0.4432365     2.0052946
H           5.0297273     0.4902510     1.7486475
H           4.2836662    -0.9295152     2.5149726
O           2.4628587    -2.6893889     1.5349854
O           2.4936645    -2.5264141    -1.0273527
C          -0.6465681     0.4773313     1.1836926
H          -1.3404100     0.8547198     1.9265765
C           0.4069331    -0.4367482     1.4714455
H           0.6193616    -0.8567536     2.4475895
C           1.1335921    -0.7614275     0.3536986
S           0.5290309     0.0307517    -1.0748639
C          -0.6954311     0.8224789    -0.1417672
H          -1.3952677     1.4872402    -0.6316620
21
211_C7H10O2S2_17-0-1-3 (-150,) energy =   -1219.5162395
S           2.5030705    -1.9002276     0.4519602
C           3.9889740    -0.7893018     0.4639504
H           3.6778573     0.0511446    -0.1682822
C           5.1567907    -1.5145851    -0.2089368
H           4.8899978    -1.8527268    -1.2119297
H           5.4732871    -2.3845457     0.3766016
H           6.0064717    -0.8263915    -0.2798036
C           4.2803162    -0.3041381     1.8816526
H           3.4292565     0.2361188     2.3081987
H           5.1372462     0.3784322     1.8599883
H           4.5176525    -1.1446663     2.5392691
O           2.4287427    -2.6094965     1.7401523
O           2.5089106    -2.6347645    -0.8251455
C          -0.6630336     0.5405388     1.0746112
H          -1.3636428     0.9876266     1.7710222
C           0.3821776    -0.3481419     1.4580495
H           0.5798035    -0.6769702     2.4716435
C           1.1191353    -0.7788528     0.3840219
S           0.5369160    -0.1181163    -1.1183767
C          -0.6945142     0.7621233    -0.2773091
H          -1.3860065     1.3803922    -0.8352432
21
211_C7H10O2S2_17-0-1-3 (-135,) energy =   -1219.5141279
S           2.4902854    -1.9043433     0.6034692
C           3.9798859    -0.7770897     0.5737589
H           3.5950740     0.1363006     0.1052776
C           5.0594652    -1.3824683    -0.3249586
H           4.6794469    -1.5876438    -1.3272964
H           5.4461141    -2.3190500     0.0901246
H           5.8925510    -0.6742284    -0.3991388
C           4.4423988    -0.4771587     1.9978962
H           3.6492386    -0.0190128     2.5957642
H           5.2868652     0.2203157     1.9593665
H           4.7645636    -1.3894425     2.5068050
O           2.3739236    -2.5075730     1.9413893
O           2.5323135    -2.7426112    -0.6073651
C          -0.6932655     0.5690481     0.9362614
H          -1.4103183     1.0725185     1.5751062
C           0.3425933    -0.2811101     1.4196346
H           0.5170570    -0.5205133     2.4621678
C           1.1039959    -0.8007692     0.4040404
S           0.5583717    -0.2735408    -1.1634366
C          -0.6928560     0.6730935    -0.4300454
H          -1.3716744     1.2385790    -1.0554096
21
211_C7H10O2S2_17-0-1-3 (-120,) energy =   -1219.5128672
S           2.4833348    -1.8818282     0.7691229
C           3.9743516    -0.7447516     0.6867306
H           3.5456097     0.2249159     0.4105001
C           4.9270385    -1.2221176    -0.4098602
H           4.4341739    -1.2804719    -1.3827569
H           5.3328026    -2.2116163    -0.1796506
H           5.7618432    -0.5155657    -0.4828305
C           4.6294174    -0.6506114     2.0648083
H           3.9293671    -0.3022674     2.8278454
H           5.4648984     0.0568096     2.0106684
H           5.0187140    -1.6211490     2.3851804
O           2.3265864    -2.3518333     2.1558991
O           2.5630023    -2.8356531    -0.3506242
C          -0.7114298     0.5999495     0.8003750
H          -1.4399313     1.1626278     1.3735293
C           0.3179837    -0.1931610     1.3839442
H           0.4761235    -0.3240180     2.4480475
C           1.0967908    -0.8098385     0.4384652
S           0.5752359    -0.4456907    -1.1827013
C          -0.6897261     0.5654266    -0.5693698
H          -1.3593685     1.0628057    -1.2591525
21
211_C7H10O2S2_17-0-1-3 (-105,) energy =   -1219.5134581
S           2.4857673    -1.8315189     0.9302617
C           3.9691870    -0.6947794     0.8085792
H           3.5304638     0.3065790     0.7415648
C           4.7721207    -1.0207349    -0.4508069
H           4.1767717    -0.9070887    -1.3611263
H           5.1463266    -2.0472595    -0.4205371
H           5.6268297    -0.3375331    -0.5135442
C           4.7999619    -0.8176018     2.0881485
H           4.2085418    -0.6019711     2.9800465
H           5.6328859    -0.1072068     2.0360507
H           5.2168153    -1.8240939     2.1942222
O           2.2824380    -2.1689364     2.3495223
O           2.6123399    -2.8869492    -0.0886681
C          -0.7144452     0.6284391     0.6736410
H          -1.4573763     1.2338883     1.1808939
C           0.3020864    -0.1085308     1.3460271
H           0.4359008    -0.1495156     2.4206079
C           1.1040809    -0.7996043     0.4741286
S           0.6204961    -0.5735571    -1.1838040
C          -0.6610268     0.4794767    -0.6877477
H          -1.3153922     0.9146381    -1.4320738
21
211_C7H10O2S2_17-0-1-3 (-90,) energy =   -1219.5153626
S           2.5052251    -1.8102951     1.0649526
C           3.9838897    -0.6920258     0.9060928
H           3.5719950     0.3131225     1.0475795
C           4.6127055    -0.8433536    -0.4786667
H           3.9140642    -0.5845178    -1.2806786
H           4.9486726    -1.8708740    -0.6387528
H           5.4764813    -0.1733264    -0.5551622
C           4.9646875    -1.0220241     2.0357163
H           4.4942685    -0.9357975     3.0169714
H           5.8094066    -0.3259525     1.9842052
H           5.3568631    -2.0390364     1.9303016
O           2.2697165    -2.0361009     2.5014251
O           2.6607240    -2.9392145     0.1324545
C          -0.6834698     0.6251217     0.5587796
H          -1.4282222     1.2763153     1.0027400
C           0.3285853    -0.0462650     1.3020403
H           0.4550476     0.0123159     2.3766896
C           1.1353996    -0.8159394     0.5028362
S           0.6583702    -0.7471363    -1.1710049
C          -0.6240116     0.3479861    -0.7823928
H          -1.2738047     0.7126001    -1.5675128
21
211_C7H10O2S2_17-0-1-3 (-75,) energy =   -1219.5169321
S           2.4860345    -1.7755103     1.1996564
C           3.9732016    -0.6908770     1.0244684
H           3.6188611     0.2938065     1.3499115
C           4.4477707    -0.6540269    -0.4274244
H           3.6791495    -0.2668594    -1.1036671
H           4.7306372    -1.6552998    -0.7637760
H           5.3227281     0.0012042    -0.5033668
C           5.0471598    -1.2090745     1.9871291
H           4.6840334    -1.2324989     3.0167610
H           5.9200727    -0.5491649     1.9344046
H           5.3656463    -2.2184790     1.7063224
O           2.2075683    -1.9014145     2.6402087
O           2.6711418    -2.9636541     0.3486898
C          -0.6582752     0.6379178     0.3981472
H          -1.3905040     1.3515739     0.7591298
C           0.3485594     0.0509713     1.2154216
H           0.4786741     0.2410745     2.2744563
C           1.1404363    -0.8255287     0.5165728
S           0.6527938    -0.9630313    -1.1497307
C          -0.6118198     0.1900443    -0.8969090
H          -1.2619168     0.4613031    -1.7187682
21
211_C7H10O2S2_17-0-1-3 (-60,) energy =   -1219.5171810
S           2.4843841    -1.7444679     1.3559546
C           3.9931433    -0.7024903     1.1492206
H           3.7217124     0.2399389     1.6390538
C           4.3189747    -0.4717549    -0.3252552
H           3.5142771     0.0519720    -0.8490271
H           4.5052823    -1.4232127    -0.8330875
H           5.2241330     0.1412677    -0.4004480
C           5.1270500    -1.3886327     1.9172841
H           4.8606760    -1.5431083     2.9658803
H           6.0220792    -0.7585422     1.8728865
H           5.3651085    -2.3584642     1.4691374
O           2.1759461    -1.7701701     2.7953699
O           2.6792746    -2.9882126     0.5894279
C          -0.6067349     0.6247925     0.2665542
H          -1.3224617     1.3933655     0.5363218
C           0.3936733     0.1266336     1.1478660
H           0.5319464     0.4470158     2.1740862
C           1.1648547    -0.8466763     0.5625605
S           0.6634535    -1.1872107    -1.0697893
C          -0.5775613     0.0128492    -0.9602298
H          -1.2284889     0.1891739    -1.8069533
21
211_C7H10O2S2_17-0-1-3 (-45,) energy =   -1219.5161570
S           2.4695871    -1.6953401     1.4842752
C           4.0077113    -0.7045313     1.2250620
H           3.8452848     0.1744195     1.8592564
C           4.1897340    -0.2808654    -0.2312439
H           3.3776460     0.3633893    -0.5782491
H           4.2506057    -1.1547132    -0.8887128
H           5.1280471     0.2776047    -0.3241261
C           5.1725456    -1.5368287     1.7697990
H           5.0052943    -1.8194329     2.8129965
H           6.0914233    -0.9428304     1.7162669
H           5.3082476    -2.4468474     1.1784828
O           2.1464200    -1.6129374     2.9180884
O           2.6529714    -2.9940189     0.8107817
C          -0.5568041     0.6200445     0.1260210
H          -1.2556402     1.4299810     0.3032504
C           0.4233737     0.1945223     1.0663663
H           0.5606932     0.6213303     2.0533051
C           1.1733353    -0.8553210     0.5971852
S           0.6781631    -1.3564111    -0.9944275
C          -0.5321207    -0.1209956    -1.0275983
H          -1.1725092    -0.0218748    -1.8946740
21
211_C7H10O2S2_17-0-1-3 (-30,) energy =   -1219.5142996
S           2.4385808    -1.6431025     1.6043413
C           4.0268981    -0.7350207     1.2838485
H           3.9893464     0.0666623     2.0295087
C           4.1064270    -0.1326623    -0.1182526
H           3.3119515     0.5954817    -0.2998578
H           4.0540566    -0.9079212    -0.8905146
H           5.0688517     0.3806636    -0.2254882
C           5.1730552    -1.6965931     1.6059647
H           5.0903345    -2.0926200     2.6223237
H           6.1227117    -1.1559579     1.5258744
H           5.1849169    -2.5377849     0.9078969
O           2.0985113    -1.4161659     3.0186216
O           2.5819804    -3.0054880     1.0584666
C          -0.5224120     0.5924868    -0.0070547
H          -1.2181427     1.4183296     0.0914549
C           0.4250153     0.2277941     0.9909042
H           0.5395318     0.7231864     1.9482460
C           1.1768659    -0.8595411     0.6210245
S           0.7242731    -1.4695164    -0.9446925
C          -0.4707674    -0.2288001    -1.1040762
H          -1.0842076    -0.1871528    -1.9949855
21
211_C7H10O2S2_17-0-1-3 (-15,) energy =   -1219.5123274
S           2.4287401    -1.5514985     1.7378261
C           4.0631830    -0.7357547     1.3399658
H           4.1546413    -0.0267767     2.1694319
C           4.0634346     0.0268231     0.0151586
H           3.2962603     0.8045823    -0.0145436
H           3.9116296    -0.6430685    -0.8380406
H           5.0402519     0.5082622    -0.1091240
C           5.1576204    -1.7992328     1.4341406
H           5.1513437    -2.3028400     2.4046772
H           6.1321964    -1.3144074     1.3060647
H           5.0364423    -2.5588789     0.6574249
O           2.0843962    -1.1503568     3.1122393
O           2.5242975    -2.9722687     1.3554494
C          -0.5018180     0.5412535    -0.1050429
H          -1.2055127     1.3659217    -0.0820360
C           0.4239682     0.2565397     0.9384553
H           0.5138756     0.8196503     1.8602550
C           1.1913575    -0.8481378     0.6655704
S           0.7804956    -1.5716293    -0.8631030
C          -0.4179402    -0.3545642    -1.1397296
H          -1.0093873    -0.3813849    -2.0459321
21
211_C7H10O2S2_17-0-1-3 (0,) energy =   -1219.5112927
S           2.4237788    -1.4804659     1.8540688
C           4.0936732    -0.7624818     1.3888768
H           4.3161967    -0.1782000     2.2875386
C           4.0427236     0.1628396     0.1727894
H           3.3287188     0.9804122     0.3019778
H           3.7819353    -0.3823458    -0.7402034
H           5.0366410     0.6016519     0.0281003
C           5.1001493    -1.9025869     1.2348585
H           5.1386079    -2.5356641     2.1244025
H           6.0956928    -1.4735483     1.0717713
H           4.8510198    -2.5391222     0.3810249
O           2.0818006    -0.9082031     3.1678408
O           2.4711945    -2.9379817     1.6421989
C          -0.4665136     0.4701287    -0.1967697
H          -1.1708596     1.2930763    -0.2462962
C           0.4387409     0.2626676     0.8825462
H           0.5115813     0.8897680     1.7635120
C           1.2117174    -0.8568935     0.7049475
S           0.8311943    -1.6884821    -0.7767083
C          -0.3616461    -0.4958308    -1.1638901
H          -0.9340087    -0.5876828    -2.0780335
21
211_C7H10O2S2_17-0-1-3 (15,) energy =   -1219.5118619
S           2.5456489    -1.1595605    -0.7390098
C           4.1576588    -1.0111002     0.2036436
H           4.6221028    -1.9672575    -0.0596059
C           3.9540598    -0.9264167     1.7167424
H           3.3570289    -1.7575531     2.1025370
H           3.4705362     0.0116984     2.0061519
H           4.9354611    -0.9639742     2.2033122
C           4.9805087     0.1534306    -0.3474075
H           5.1114159     0.0821852    -1.4289131
H           5.9688608     0.1439758     0.1269786
H           4.5060644     1.1154055    -0.1282338
O           2.3732473    -2.5957588    -1.0210087
O           2.5413319    -0.1600933    -1.8205863
C          -0.5423251    -0.9464850     1.8640624
H          -1.2461360    -1.4626083     2.5075410
C           0.4716888    -1.6019019     1.1092540
H           0.6400541    -2.6721816     1.0876020
C           1.2192050    -0.7217994     0.3689637
S           0.6819322     0.9234045     0.5667498
C          -0.5422787     0.4115974     1.6782372
H          -1.2072052     1.1440236     2.1176319
21
211_C7H10O2S2_17-0-1-3 (30,) energy =   -1219.5138765
S           2.5594804    -1.2914921    -0.7309244
C           4.1657128    -1.0196536     0.1705542
H           4.7446749    -1.8685491    -0.2107003
C           3.9982267    -1.1339965     1.6862458
H           3.5102923    -2.0695742     1.9755206
H           3.4195666    -0.2978226     2.0898007
H           4.9901321    -1.1151368     2.1519172
C           4.8081506     0.3014514    -0.2535381
H           4.8977327     0.3746872    -1.3389596
H           5.8087498     0.3699217     0.1889431
H           4.2251395     1.1589020     0.1006644
O           2.3973408    -2.7524624    -0.8368831
O           2.5412925    -0.4302052    -1.9243888
C          -0.4999048    -0.8131797     1.8693501
H          -1.2048098    -1.2632388     2.5595129
C           0.4942964    -1.5452839     1.1600896
H           0.6457563    -2.6162301     1.2239800
C           1.2486740    -0.7413196     0.3441118
S           0.7416573     0.9243450     0.4148938
C          -0.4788107     0.5254772     1.5756694
H          -1.1252971     1.3028331     1.9621729
21
211_C7H10O2S2_17-0-1-3 (45,) energy =   -1219.5161039
S           2.5793995    -1.3695059    -0.7316508
C           4.1744438    -1.0021555     0.1331981
H           4.8347818    -1.7146023    -0.3767048
C           4.0919311    -1.3392538     1.6221882
H           3.7396749    -2.3622654     1.7837166
H           3.4280082    -0.6491873     2.1517922
H           5.0914746    -1.2518264     2.0626736
C           4.6309311     0.4312271    -0.1368209
H           4.6630492     0.6439620    -1.2073686
H           5.6344610     0.5731665     0.2804033
H           3.9648522     1.1577252     0.3424745
O           2.4281823    -2.8348479    -0.7139827
O           2.5598621    -0.6114217    -1.9934137
C          -0.4552942    -0.6740189     1.8487634
H          -1.1433412    -1.0624202     2.5913585
C           0.5425307    -1.4592970     1.2049487
H           0.7118386    -2.5157046     1.3757311
C           1.2741279    -0.7315140     0.3005574
S           0.7380332     0.9239539     0.2070770
C          -0.4616289     0.6274753     1.4181735
H          -1.1164894     1.4301661     1.7320671
21
211_C7H10O2S2_17-0-1-3 (60,) energy =   -1219.5172364
S           2.5868457    -1.4395313    -0.6982705
C           4.1765586    -0.9942934     0.1261863
H           4.8778294    -1.5515015    -0.5088686
C           4.2301756    -1.5367787     1.5539865
H           4.0218998    -2.6095473     1.5788250
H           3.5130583    -1.0213877     2.2018027
H           5.2327050    -1.3707319     1.9638704
C           4.4615431     0.5034414     0.0201718
H           4.3968370     0.8471686    -1.0149897
H           5.4736024     0.7029359     0.3900339
H           3.7628203     1.0870713     0.6294826
O           2.4396214    -2.8997509    -0.5776418
O           2.5681286    -0.7723388    -2.0109372
C          -0.4233332    -0.5230108     1.8425457
H          -1.0829131    -0.8348826     2.6446671
C           0.5953597    -1.3466326     1.2861444
H           0.8058219    -2.3656954     1.5882991
C           1.2832534    -0.7164620     0.2787479
S           0.6771232     0.8892049    -0.0210741
C          -0.4902652     0.7078691     1.2422318
H          -1.1727004     1.5189890     1.4614988
21
211_C7H10O2S2_17-0-1-3 (75,) energy =   -1219.5167322
S           2.5766777    -1.5201093    -0.6545475
C           4.1675875    -0.9959583     0.1226889
H           4.8695651    -1.3841232    -0.6274687
C           4.3974867    -1.7077105     1.4545646
H           4.3073423    -2.7905110     1.3449231
H           3.6821097    -1.3699332     2.2133839
H           5.4044447    -1.4741737     1.8184122
C           4.2914318     0.5255691     0.1885085
H           4.1009571     0.9830297    -0.7861968
H           5.3103337     0.7870683     0.4953739
H           3.6005135     0.9533773     0.9221675
O           2.4305673    -2.9677072    -0.4314591
O           2.5590518    -0.9472014    -2.0117895
C          -0.4042357    -0.3775594     1.8288491
H          -1.0367650    -0.6043718     2.6798419
C           0.6248686    -1.2370319     1.3513621
H           0.8685818    -2.2063181     1.7703225
C           1.2721798    -0.7178697     0.2569928
S           0.6139816     0.8212584    -0.2227187
C          -0.5198701     0.7667658     1.0823933
H          -1.2214010     1.5801880     1.2163912
21
211_C7H10O2S2_17-0-1-3 (90,) energy =   -1219.5148757
S           2.5698881    -1.5814700    -0.6054343
C           4.1661260    -0.9841717     0.1255071
H           4.8327299    -1.1939056    -0.7211330
C           4.5855920    -1.8342619     1.3228553
H           4.5803113    -2.8972496     1.0752352
H           3.9203833    -1.6744998     2.1795395
H           5.5980526    -1.5466830     1.6286908
C           4.1514821     0.5209722     0.3863663
H           3.8327931     1.0799000    -0.4982376
H           5.1663947     0.8454553     0.6421966
H           3.4939705     0.7781212     1.2228887
O           2.4240433    -3.0093481    -0.2804005
O           2.5535637    -1.1054451    -2.0004066
C          -0.3950150    -0.2158102     1.7840509
H          -1.0063536    -0.3500948     2.6694854
C           0.6432608    -1.1069670     1.3916516
H           0.9157249    -2.0128406     1.9207913
C           1.2566444    -0.7119768     0.2283009
S           0.5572567     0.7440115    -0.4197646
C          -0.5496872     0.8267937     0.9069168
H          -1.2678432     1.6352897     0.9553895
21
211_C7H10O2S2_17-0-1-3 (105,) energy =   -1219.5125440
S           2.5317344    -1.6494833    -0.5302671
C           4.1495524    -0.9750501     0.1131543
H           4.7357777    -1.0172373    -0.8125974
C           4.7614072    -1.9185158     1.1468481
H           4.8117949    -2.9427001     0.7732785
H           4.1841421    -1.9241775     2.0780571
H           5.7765439    -1.5772953     1.3809179
C           4.0435319     0.4778207     0.5731479
H           3.6262111     1.1235197    -0.2048527
H           5.0487096     0.8450944     0.8093854
H           3.4281381     0.5730780     1.4733192
O           2.3846731    -3.0346856    -0.0546619
O           2.4987372    -1.3229324    -1.9676331
C          -0.4419532    -0.0716363     1.7133194
H          -1.0554208    -0.1244445     2.6058708
C           0.6014678    -0.9915108     1.4103995
H           0.8777938    -1.8407160     2.0247244
C           1.2157098    -0.7068099     0.2161697
S           0.5125071     0.6776943    -0.5694755
C          -0.5988352     0.8820177     0.7406957
H          -1.3216475     1.6871857     0.7092475
21
211_C7H10O2S2_17-0-1-3 (120,) energy =   -1219.5111437
S           2.5277467    -1.7288755    -0.3949850
C           4.1541444    -0.9517944     0.1258247
H           4.6288185    -0.8245484    -0.8527722
C           4.9487061    -1.9468353     0.9711175
H           5.0659658    -2.9078062     0.4658850
H           4.4609843    -2.1310502     1.9332059
H           5.9443104    -1.5297614     1.1626874
C           3.9865874     0.4110702     0.7978292
H           3.4468691     1.1224454     0.1668076
H           4.9814952     0.8264256     0.9951777
H           3.4601143     0.3282916     1.7539657
O           2.4073631    -3.0365672     0.2719115
O           2.4642234    -1.6075703    -1.8624958
C          -0.4791850     0.0247614     1.6662506
H          -1.1041994     0.0452345     2.5521036
C           0.5735461    -0.9109106     1.4574683
H           0.8482977    -1.7012589     2.1462589
C           1.2010782    -0.7275682     0.2509391
S           0.5000828     0.5797702    -0.6607018
C          -0.6286124     0.8904358     0.6138251
H          -1.3550915     1.6853476     0.5040205
21
211_C7H10O2S2_17-0-1-3 (135,) energy =   -1219.5116438
S           2.5148424    -1.7661368    -0.2694898
C           4.1284435    -0.9025064     0.1314731
H           4.4766493    -0.6131517    -0.8647311
C           5.0731475    -1.9279122     0.7612852
H           5.2121532    -2.8040436     0.1223835
H           4.6918096    -2.2719040     1.7261391
H           6.0509917    -1.4572299     0.9153607
C           3.9487742     0.3358661     1.0111035
H           3.3082518     1.0904120     0.5471752
H           4.9327764     0.7880432     1.1805492
H           3.5267355     0.0769957     1.9876825
O           2.4213808    -2.9686971     0.5769406
O           2.4388491    -1.8556365    -1.7378283
C          -0.5287158     0.1505347     1.5791981
H          -1.1728602     0.2409575     2.4467880
C           0.5241200    -0.8015516     1.4667415
H           0.7831793    -1.5360941     2.2200556
C           1.1785533    -0.7134980     0.2643482
S           0.5034642     0.5222889    -0.7611647
C          -0.6507090     0.9343033     0.4613845
H          -1.3698509     1.7216634     0.2755146
21
211_C7H10O2S2_17-0-1-3 (150,) energy =   -1219.5136608
S           2.5386114    -1.8178814    -0.1430923
C           4.1129272    -0.8680580     0.1464130
H           4.3191555    -0.4297524    -0.8349399
C           5.1902131    -1.8859187     0.5329264
H           5.2970242    -2.6720947    -0.2203557
H           4.9517278    -2.3577249     1.4891691
H           6.1510960    -1.3668328     0.6219736
C           3.9582019     0.2234469     1.2071870
H           3.2335383     0.9893039     0.9193188
H           4.9284115     0.7126074     1.3509067
H           3.6523946    -0.2013155     2.1692935
O           2.4850796    -2.9059617     0.8497078
O           2.4639530    -2.0948692    -1.5872681
C          -0.5476969     0.2228667     1.4864458
H          -1.2089842     0.3786029     2.3315798
C           0.5051806    -0.7356459     1.4678776
H           0.7505102    -1.4097256     2.2798287
C           1.1847158    -0.7377746     0.2764005
S           0.5345735     0.4195889    -0.8521378
C          -0.6442645     0.9223297     0.3116905
H          -1.3563305     1.6955183     0.0532727
21
211_C7H10O2S2_17-0-1-3 (165,) energy =   -1219.5159788
S           2.5390398    -1.8571972     0.0081447
C           4.0756523    -0.8462798     0.2000578
H           4.1385638    -0.2877943    -0.7399237
C           5.2407131    -1.8341690     0.3266282
H           5.2793862    -2.5209854    -0.5241040
H           5.1495350    -2.4212203     1.2442674
H           6.1814153    -1.2736943     0.3576066
C           3.9952507     0.1013733     1.3976135
H           3.1963581     0.8400921     1.2929328
H           4.9454513     0.6396523     1.4880207
H           3.8353115    -0.4586692     2.3251198
O           2.5099882    -2.8333801     1.1119765
O           2.4766572    -2.2884543    -1.3980480
C          -0.5898447     0.2966365     1.3909635
H          -1.2697919     0.5198824     2.2055578
C           0.4646490    -0.6565680     1.4759217
H           0.6945674    -1.2586123     2.3468318
C           1.1710347    -0.7553928     0.3042050
S           0.5455357     0.3032980    -0.9300859
C          -0.6603832     0.8969217     0.1607681
H          -1.3663231     1.6449583    -0.1764826
21
211_C7H10O2S2_17-0-1-3 (180,) energy =   -1219.5174776
S           2.5282677    -1.8682344     0.1581489
C           4.0405286    -0.8199934     0.2770005
H           3.9676197    -0.1521779    -0.5889907
C           5.2470273    -1.7541315     0.1304788
H           5.2016101    -2.3197809    -0.8038975
H           5.2912375    -2.4592670     0.9659661
H           6.1649393    -1.1563699     0.1312269
C           4.0661990    -0.0250478     1.5817400
H           3.2134790     0.6544437     1.6683082
H           4.9822846     0.5749788     1.6184285
H           4.0645383    -0.7005368     2.4430210
O           2.4974594    -2.7492780     1.3387515
O           2.4838843    -2.4150729    -1.2082025
C          -0.6248125     0.3933562     1.2934938
H          -1.3152374     0.6908466     2.0748191
C           0.4324241    -0.5419041     1.4814079
H           0.6535622    -1.0571219     2.4085741
C           1.1533068    -0.7490017     0.3325806
S           0.5383947     0.1827146    -1.0048008
C          -0.6825109     0.8718519     0.0103832
H          -1.3865367     1.5813094    -0.4050731
