32
372_C13H18O_0-18-20-27 (-165,) energy =    -581.4548435
C          -0.2198887     0.2891075    -1.4807296
C          -0.2541429     1.2808053    -2.6505893
H          -1.0092157     0.9831456    -3.3877948
H           0.7155120     1.3339143    -3.1519639
H          -0.5109004     2.2896684    -2.3013329
H           0.0424775    -0.7041479    -1.8746613
C          -1.5940341     0.1905183    -0.7894826
H          -1.8833616     1.1882655    -0.4249963
H          -2.3492994    -0.0942051    -1.5332541
C          -1.5973762    -0.7991429     0.3827184
H          -1.4406632    -1.8180938     0.0000382
H          -2.5762298    -0.7978086     0.8787667
C          -0.4878152    -0.4599850     1.3860634
H          -0.4506673    -1.2062169     2.1892015
H          -0.7147783     0.5027389     1.8678046
C           0.8828768    -0.3748370     0.6972090
H           1.1519360    -1.3550333     0.2792586
H           1.6565473    -0.1225448     1.4286062
C           0.8686979     0.6447050    -0.4517255
H           0.6716086     1.6530629    -0.0512551
O           2.1089286     0.6689179    -1.1912366
C           5.8964218     0.6385190     0.5535069
H           6.8937954     0.6314682     0.9836985
C           4.8876146     1.4143385     1.1267912
H           5.0991036     2.0201215     2.0043358
C           3.6042430     1.4322858     0.5780702
H           2.8306060     2.0558516     1.0158474
C           3.3202513     0.6522717    -0.5509793
C           4.3302649    -0.1247553    -1.1301541
H           4.0901094    -0.7144904    -2.0094901
C           5.6111050    -0.1256092    -0.5808375
H           6.3882534    -0.7319933    -1.0390683
32
372_C13H18O_0-18-20-27 (-150,) energy =    -581.4522111
C          -0.1830172     0.3107249    -1.4885770
C          -0.2778657     1.2833692    -2.6708661
H          -0.9737825     0.9042693    -3.4286773
H           0.6980319     1.4301046    -3.1402617
H          -0.6468433     2.2639725    -2.3421961
H           0.1909783    -0.6546870    -1.8616463
C          -1.5630021     0.0799693    -0.8420072
H          -1.9636275     1.0465159    -0.4994669
H          -2.2604006    -0.2867046    -1.6061697
C          -1.5044727    -0.8935330     0.3419344
H          -1.2318265    -1.8948362    -0.0218762
H          -2.4939136    -0.9877835     0.8070864
C          -0.4693564    -0.4313815     1.3750263
H          -0.3839046    -1.1600136     2.1905564
H          -0.8087276     0.5091948     1.8337390
C           0.9099716    -0.2155712     0.7325559
H           1.2935364    -1.1699433     0.3454047
H           1.6243871     0.1249712     1.4880387
C           0.8303730     0.7840296    -0.4295127
H           0.5146361     1.7671647    -0.0430144
O           2.0844198     0.9593457    -1.1341311
C           5.8631765     0.4704029     0.5613745
H           6.8580108     0.3488231     0.9804243
C           4.9554744     1.3540278     1.1492605
H           5.2444330     1.9278777     2.0261436
C           3.6785374     1.5196484     0.6118085
H           2.9809865     2.2261368     1.0525889
C           3.2961573     0.7813887    -0.5161997
C           4.2046058    -0.1014669    -1.1094837
H           3.8918996    -0.6539319    -1.9902776
C           5.4835042    -0.2502896    -0.5731269
H           6.1836450    -0.9371080    -1.0418409
32
372_C13H18O_0-18-20-27 (-135,) energy =    -581.4502403
C          -0.1273490     0.3297240    -1.4932521
C          -0.2604094     1.2876145    -2.6833965
H          -0.8808197     0.8432956    -3.4708116
H           0.7180631     1.5271331    -3.1070472
H          -0.7362052     2.2285746    -2.3768245
H           0.3509742    -0.5976071    -1.8447577
C          -1.5067139    -0.0300072    -0.9065711
H          -2.0136595     0.8957676    -0.5934101
H          -2.1308175    -0.4685127    -1.6959155
C          -1.4074246    -0.9835525     0.2908624
H          -1.0190883    -1.9552891    -0.0473553
H          -2.4034676    -1.1733218     0.7105156
C          -0.4742867    -0.4126573     1.3661720
H          -0.3596603    -1.1216725     2.1953056
H          -0.9249210     0.4952273     1.7936135
C           0.9084870    -0.0714469     0.7880735
H           1.4026007    -0.9906094     0.4446879
H           1.5472713     0.3532274     1.5692870
C           0.7866570     0.8998217    -0.3919307
H           0.3541929     1.8463049    -0.0298255
O           2.0508402     1.2347417    -1.0253932
C           5.8113898     0.3192223     0.5324918
H           6.8009711     0.0910180     0.9184127
C           5.0335997     1.3110100     1.1345825
H           5.4188330     1.8607659     1.9895747
C           3.7649818     1.6120564     0.6379996
H           3.1637547     2.3983865     1.0855039
C           3.2606786     0.9073098    -0.4623538
C           4.0401365    -0.0820779    -1.0706851
H           3.6391328    -0.6051052    -1.9336785
C           5.3118714    -0.3707111    -0.5740975
H           5.9128762    -1.1391716    -1.0535231
32
372_C13H18O_0-18-20-27 (-120,) energy =    -581.4496193
C          -0.0518981     0.3613016    -1.4948922
C          -0.1905448     1.3289401    -2.6757823
H          -0.7264411     0.8540016    -3.5061731
H           0.7891951     1.6536915    -3.0353352
H          -0.7559325     2.2236596    -2.3833765
H           0.5148244    -0.5211830    -1.8322306
C          -1.4299944    -0.1177572    -0.9948602
H          -2.0300396     0.7609304    -0.7119883
H          -1.9667263    -0.6015727    -1.8211434
C          -1.3262304    -1.0676020     0.2059315
H          -0.8362154    -2.0008020    -0.1081446
H          -2.3277479    -1.3439888     0.5591612
C          -0.5163060    -0.4301356     1.3429056
H          -0.4018359    -1.1334432     2.1768968
H          -1.0652524     0.4366703     1.7391929
C           0.8698860     0.0213821     0.8551964
H           1.4541853    -0.8573307     0.5529560
H           1.4243801     0.5020382     1.6693116
C           0.7398984     0.9835246    -0.3293274
H           0.1953573     1.8778375     0.0110101
O           2.0039960     1.4928358    -0.8371072
C           5.7456422     0.1999975     0.4859680
H           6.7296198    -0.1210841     0.8162245
C           5.1500467     1.3315798     1.0475972
H           5.6709537     1.8956438     1.8170626
C           3.8870663     1.7470944     0.6241504
H           3.4160018     2.6316462     1.0427629
C           3.2105801     1.0283003    -0.3677165
C           3.8102396    -0.0995619    -0.9400954
H           3.2856336    -0.6338265    -1.7268081
C           5.0723941    -0.5111449    -0.5097297
H           5.5329089    -1.3873188    -0.9590403
32
372_C13H18O_0-18-20-27 (-105,) energy =    -581.4502901
C           0.0455540     0.3729948    -1.4645638
C          -0.0556956     1.3456598    -2.6444804
H          -0.4949034     0.8514139    -3.5190786
H           0.9282927     1.7327127    -2.9222515
H          -0.6936172     2.2024855    -2.3906902
H           0.6748460    -0.4785808    -1.7680817
C          -1.3374900    -0.1836408    -1.0679746
H          -2.0018150     0.6596254    -0.8233762
H          -1.7876526    -0.6871942    -1.9332205
C          -1.2687573    -1.1378248     0.1324734
H          -0.7007437    -2.0368944    -0.1481901
H          -2.2760942    -1.4774034     0.4046677
C          -0.5899833    -0.4658733     1.3343710
H          -0.5009244    -1.1703817     2.1704379
H          -1.2192399     0.3628920     1.6904473
C           0.8012034     0.0707228     0.9596584
H           1.4602671    -0.7709836     0.7144597
H           1.2578232     0.5915643     1.8098755
C           0.7054033     1.0257738    -0.2338279
H           0.0709114     1.8741224     0.0625535
O           1.9576027     1.6690183    -0.5884665
C           5.7436671     0.1685127     0.3316175
H           6.7391874    -0.1997535     0.5629500
C           5.2968716     1.3772768     0.8697386
H           5.9445239     1.9551775     1.5240997
C           4.0172502     1.8490928     0.5774885
H           3.6539734     2.7868882     0.9867622
C           3.1744001     1.1168552    -0.2661984
C           3.6262150    -0.0877382    -0.8213571
H           2.9843408    -0.6399501    -1.5006304
C           4.9031900    -0.5591941    -0.5132324
H           5.2454336    -1.4955865    -0.9465809
32
372_C13H18O_0-18-20-27 (-90,) energy =    -581.4510351
C           0.1270087     0.3217262    -1.4126866
C           0.0658698     1.1595182    -2.6945967
H          -0.2799345     0.5536279    -3.5404604
H           1.0453053     1.5769843    -2.9444893
H          -0.6323956     1.9987928    -2.5788949
H           0.8155944    -0.5216454    -1.5743581
C          -1.2535936    -0.2691102    -1.0573423
H          -1.9749051     0.5552794    -0.9458556
H          -1.6129496    -0.8793327    -1.8960991
C          -1.2270824    -1.0968875     0.2348930
H          -0.5945556    -1.9842746     0.0866338
H          -2.2336531    -1.4660589     0.4688102
C          -0.6763128    -0.2721542     1.4064217
H          -0.6110276    -0.8857701     2.3134087
H          -1.3751466     0.5462806     1.6336399
C           0.7057129     0.3132130     1.0748707
H           1.4307279    -0.5031744     0.9609818
H           1.0657014     0.9437079     1.8967858
C           0.6570035     1.1366721    -0.2158630
H          -0.0305592     1.9803283    -0.0633761
O           1.9083287     1.8084936    -0.5142062
C           5.6455375     0.0734483     0.1826515
H           6.6274619    -0.3563049     0.3600316
C           5.1529368     1.0743934     1.0228841
H           5.7516266     1.4284665     1.8582157
C           3.8918458     1.6258342     0.7970565
H           3.4975726     2.4101217     1.4360882
C           3.1120414     1.1808422    -0.2765911
C           3.6112295     0.1895826    -1.1311399
H           3.0225254    -0.1283667    -1.9852455
C           4.8710958    -0.3631452    -0.8937604
H           5.2517164    -1.1316809    -1.5617255
32
372_C13H18O_0-18-20-27 (-75,) energy =    -581.4512490
C           0.1856908    -0.2160606    -1.1433268
C           0.2769119    -0.0577234    -2.6651748
H          -0.0390606    -0.9785582    -3.1692266
H           1.2975723     0.1733404    -2.9829668
H          -0.3737114     0.7545961    -3.0141801
H           0.8493030    -1.0379344    -0.8433467
C          -1.2420288    -0.5925486    -0.6934172
H          -1.9429256     0.1783519    -1.0492815
H          -1.5394497    -1.5282596    -1.1840071
C          -1.3662834    -0.7241060     0.8315695
H          -0.7458672    -1.5641540     1.1770157
H          -2.4004944    -0.9673287     1.1058656
C          -0.9181141     0.5634125     1.5384680
H          -0.9680945     0.4433847     2.6276122
H          -1.6132497     1.3763745     1.2823128
C           0.5078634     0.9611045     1.1229568
H           1.2172227     0.2189015     1.5054160
H           0.7883558     1.9239905     1.5662391
C           0.6087203     1.0723183    -0.4049442
H          -0.0974534     1.8530374    -0.7196740
O           1.8573893     1.6328639    -0.8577363
C           5.7700418     0.3613809    -0.1323980
H           6.8001971     0.0621940     0.0374405
C           4.7228285    -0.5074598     0.1643778
H           4.9326477    -1.4952152     0.5672674
C           3.3914449    -0.1372249    -0.0509411
H           2.6050354    -0.8426617     0.1814720
C           3.0970395     1.1322270    -0.5678618
C           4.1541072     2.0082572    -0.8674319
H           3.9089345     2.9869992    -1.2682417
C           5.4732200     1.6245030    -0.6541044
H           6.2749217     2.3185816    -0.8933499
32
372_C13H18O_0-18-20-27 (-60,) energy =    -581.4511081
C           0.2863077    -0.1573555    -1.0699045
C           0.4766519     0.0470015    -2.5776490
H           0.2281122    -0.8697446    -3.1250973
H           1.5080195     0.3180739    -2.8206380
H          -0.1768452     0.8464213    -2.9501413
H           0.9645433    -0.9560991    -0.7436787
C          -1.1524491    -0.6085939    -0.7372731
H          -1.8603348     0.1352301    -1.1343377
H          -1.3648044    -1.5471754    -1.2651929
C          -1.3894018    -0.7784488     0.7703799
H          -0.7580377    -1.5960420     1.1486096
H          -2.4288235    -1.0761629     0.9572698
C          -1.0590133     0.5120157     1.5342019
H          -1.1908458     0.3665740     2.6133549
H          -1.7663184     1.3000571     1.2368253
C           0.3764876     0.9777853     1.2407948
H           1.0839249     0.2572889     1.6663961
H           0.5807695     1.9419200     1.7211580
C           0.5933655     1.1278640    -0.2730694
H          -0.1181347     1.8878019    -0.6240897
O           1.8491313     1.7546356    -0.6006921
C           5.7406467     0.2564041    -0.3515783
H           6.7654748    -0.0997057    -0.3023021
C           4.7023804    -0.4995318     0.1866966
H           4.9141649    -1.4538135     0.6626152
C           3.3774699    -0.0542614     0.1329589
H           2.5997098    -0.6662912     0.5688910
C           3.0803918     1.1729146    -0.4764439
C           4.1291388     1.9353972    -1.0192687
H           3.8815542     2.8840275    -1.4855897
C           5.4416483     1.4820386    -0.9552475
H           6.2360741     2.0892994    -1.3817013
32
372_C13H18O_0-18-20-27 (-45,) energy =    -581.4507076
C           0.3890539    -0.0926740    -1.0097255
C           0.6741669     0.1476353    -2.4977861
H           0.4831696    -0.7633553    -3.0770856
H           1.7125209     0.4445294    -2.6702705
H           0.0268571     0.9391642    -2.8969349
H           1.0753213    -0.8688903    -0.6472835
C          -1.0514351    -0.6083828    -0.7956523
H          -1.7572136     0.1124178    -1.2363078
H          -1.1804626    -1.5445827    -1.3539388
C          -1.4016847    -0.8171965     0.6843998
H          -0.7709666    -1.6171232     1.0995506
H          -2.4403302    -1.1575451     0.7810375
C          -1.1836215     0.4707745     1.4905239
H          -1.3961570     0.3039131     2.5535849
H          -1.8934223     1.2377846     1.1471645
C           0.2516795     0.9899548     1.3170286
H           0.9500164     0.2789634     1.7751108
H           0.3904360     1.9460738     1.8349982
C           0.5866317     1.1849314    -0.1701697
H          -0.1109108     1.9363916    -0.5652207
O           1.8574369     1.8480019    -0.3495470
C           5.6815022     0.1769392    -0.5281960
H           6.6887453    -0.2254823    -0.5848477
C           4.6969280    -0.4819503     0.2056836
H           4.9356169    -1.4031210     0.7314349
C           3.3980847     0.0276050     0.2908416
H           2.6615964    -0.4937628     0.8888505
C           3.0690646     1.2129438    -0.3821908
C           4.0621679     1.8776575    -1.1197020
H           3.7919618     2.7976212    -1.6289870
C           5.3542828     1.3657497    -1.1867992
H           6.1084585     1.8962542    -1.7625050
32
372_C13H18O_0-18-20-27 (-30,) energy =    -581.4494111
C           0.4512444    -0.0700813    -0.9374075
C           0.8039253     0.1621315    -2.4134398
H           0.6485788    -0.7556911    -2.9928383
H           1.8450652     0.4684966    -2.5448306
H           0.1649421     0.9419644    -2.8475981
H           1.1257188    -0.8354887    -0.5328215
C          -0.9943384    -0.6025798    -0.8059972
H          -1.6805276     0.1107254    -1.2878964
H          -1.0776504    -1.5382421    -1.3737383
C          -1.4342751    -0.8189446     0.6478678
H          -0.8212049    -1.6111572     1.1022381
H          -2.4728283    -1.1719155     0.6778403
C          -1.2811462     0.4717237     1.4631326
H          -1.5497931     0.3031092     2.5131943
H          -1.9809079     1.2289490     1.0797146
C           0.1545187     1.0063396     1.3673653
H           0.8384602     0.2986364     1.8547226
H           0.2578503     1.9595229     1.8986598
C           0.5871752     1.2113578    -0.0930129
H          -0.0717957     1.9687421    -0.5395914
O           1.8813821     1.8651369    -0.1244361
C           5.6327240     0.1219244    -0.6898846
H           6.6212152    -0.3030485    -0.8386194
C           4.7175217    -0.5011937     0.1586006
H           4.9944450    -1.4129470     0.6819612
C           3.4465926     0.0408216     0.3631232
H           2.7611589    -0.4360161     1.0545220
C           3.0723603     1.2142609    -0.3071264
C           3.9953107     1.8449191    -1.1541205
H           3.6929048     2.7607973    -1.6525796
C           5.2655609     1.3036118    -1.3388358
H           5.9692429     1.8054561    -1.9981064
32
372_C13H18O_0-18-20-27 (-15,) energy =    -581.4474290
C           0.4944742    -0.0815214    -0.8670580
C           0.9135538     0.1126221    -2.3323496
H           0.7634206    -0.8151322    -2.8973036
H           1.9634617     0.3976753    -2.4319620
H           0.3048583     0.8925762    -2.8080060
H           1.1355505    -0.8490634    -0.4147510
C          -0.9649494    -0.5922668    -0.8062404
H          -1.6116900     0.1220351    -1.3385623
H          -1.0275447    -1.5350551    -1.3647402
C          -1.4951308    -0.7793908     0.6204034
H          -0.9211019    -1.5700133     1.1256259
H          -2.5380274    -1.1195217     0.5917783
C          -1.3737962     0.5248993     1.4177020
H          -1.7032048     0.3812045     2.4541159
H          -2.0409295     1.2823446     0.9803133
C           0.0717354     1.0363492     1.3927558
H           0.7206930     0.3254895     1.9236379
H           0.1626610     1.9944418     1.9172346
C           0.6062034     1.2120053    -0.0370528
H           0.0074953     1.9819636    -0.5443557
O           1.9228674     1.8201294     0.0732030
C           5.6273703     0.1301083    -0.8400312
H           6.6040461    -0.2849271    -1.0720837
C           4.7742060    -0.5296010     0.0459127
H           5.0889211    -1.4585481     0.5147891
C           3.5209375     0.0016924     0.3559694
H           2.8801102    -0.4945518     1.0775119
C           3.1006244     1.1968300    -0.2445469
C           3.9618877     1.8661966    -1.1242957
H           3.6276735     2.8010648    -1.5638247
C           5.2174942     1.3352445    -1.4157221
H           5.8761364     1.8644280    -2.0996753
32
372_C13H18O_0-18-20-27 (0,) energy =    -581.4457348
C           0.5173286    -0.1302221    -0.7949931
C           1.0056973     0.0089192    -2.2460027
H           0.8367620    -0.9263601    -2.7930995
H           2.0688328     0.2472597    -2.3136590
H           0.4484154     0.8000804    -2.7644009
H           1.1071541    -0.9090839    -0.2931269
C          -0.9617004    -0.5890691    -0.8028646
H          -1.5498671     0.1316264    -1.3914849
H          -1.0242831    -1.5438505    -1.3405504
C          -1.5846423    -0.7182332     0.5915643
H          -1.0702061    -1.5113528     1.1537972
H          -2.6347262    -1.0252185     0.5062157
C          -1.4667077     0.6050421     1.3561297
H          -1.8645988     0.5062547     2.3735905
H          -2.0765500     1.3714101     0.8552560
C          -0.0042616     1.0599091     1.4081108
H           0.5847834     0.3393864     1.9931204
H           0.0936491     2.0270374     1.9142838
C           0.6340149     1.1759504     0.0159278
H           0.1124593     1.9612705    -0.5520383
O           1.9669491     1.7115092     0.2523366
C           5.6434307     0.1814136    -0.9904253
H           6.6130795    -0.1955259    -1.3031938
C           4.8561861    -0.5527575    -0.1014272
H           5.2160551    -1.5018606     0.2877589
C           3.6131649    -0.0699654     0.3111608
H           3.0193110    -0.6211635     1.0335186
C           3.1373126     1.1503388    -0.1873155
C           3.9330032     1.8950636    -1.0673814
H           3.5577587     2.8491233    -1.4250814
C           5.1794028     1.4112179    -1.4636485
H           5.7888714     1.9971410    -2.1469486
32
372_C13H18O_0-18-20-27 (15,) energy =    -581.4450662
C           0.4538339     0.4919357    -0.7749368
C           0.9077352     1.8834234    -1.2478740
H           0.5411630     2.0713188    -2.2643579
H           1.9920682     2.0001049    -1.2585063
H           0.4904696     2.6641502    -0.5984777
H           0.9258020    -0.2741342    -1.4068384
C          -1.0804737     0.3870390    -0.9664918
H          -1.5573032     1.2194195    -0.4263696
H          -1.3059473     0.5461198    -2.0287564
C          -1.6912833    -0.9318475    -0.4818158
H          -1.3013285    -1.7646707    -1.0851857
H          -2.7783649    -0.9180372    -0.6313367
C          -1.3484109    -1.1684501     0.9928158
H          -1.7404885    -2.1335201     1.3366084
H          -1.8328472    -0.3966697     1.6090449
C           0.1689209    -1.1200356     1.1951391
H           0.6401161    -1.9488813     0.6486436
H           0.4350664    -1.2508692     2.2502062
C           0.8014518     0.1872639     0.6979116
H           0.4179894     1.0251467     1.3023805
O           2.2065709     0.0474581     1.0492457
C           5.5433468     1.1853543    -1.1797459
H           6.4269172     1.4742508    -1.7419685
C           5.1259157     1.9463247    -0.0850052
H           5.6858974     2.8303197     0.2093319
C           3.9906123     1.5785653     0.6370750
H           3.6556577     2.1574124     1.4926278
C           3.2612596     0.4424474     0.2658403
C           3.6930550    -0.3371269    -0.8145404
H           3.1482712    -1.2412503    -1.0684162
C           4.8247984     0.0427063    -1.5376078
H           5.1521831    -0.5651085    -2.3772881
32
372_C13H18O_0-18-20-27 (30,) energy =    -581.4456217
C           0.5469684     0.4342161    -0.8061308
C           1.0628904     1.7915066    -1.3158139
H           0.5960473     2.0266407    -2.2801768
H           2.1435591     1.8175449    -1.4555849
H           0.7932132     2.5941765    -0.6170494
H           0.9229863    -0.3631039    -1.4652524
C          -1.0004667     0.4422389    -0.8992410
H          -1.3787060     1.3082329    -0.3341955
H          -1.2803694     0.6181421    -1.9457363
C          -1.6779655    -0.8264285    -0.3720866
H          -1.3909029    -1.6859816    -0.9953316
H          -2.7681054    -0.7297465    -0.4531538
C          -1.2617814    -1.0894482     1.0785396
H          -1.7056647    -2.0207186     1.4513663
H          -1.6432718    -0.2819699     1.7207633
C           0.2639993    -1.1624811     1.1826297
H           0.6325229    -2.0250618     0.6107175
H           0.5861523    -1.3144097     2.2190730
C           0.9675422     0.0884939     0.6405262
H           0.7030353     0.9533586     1.2724456
O           2.3715707    -0.2011348     0.8754455
C           5.6364442     1.3423287    -1.2092320
H           6.5007980     1.7328352    -1.7390492
C           5.1361881     2.0129722    -0.0900878
H           5.6133283     2.9265875     0.2553018
C           4.0277644     1.5133862     0.5934797
H           3.6338391     2.0189329     1.4703307
C           3.4065030     0.3390070     0.1523312
C           3.9183663    -0.3469566    -0.9544434
H           3.4455893    -1.2744001    -1.2632440
C           5.0269767     0.1598265    -1.6343632
H           5.4188119    -0.3755211    -2.4954677
32
372_C13H18O_0-18-20-27 (45,) energy =    -581.4475060
C           0.3904291     0.3430720    -0.8858533
C           1.0033963     1.6231703    -1.4788980
H           0.4804230     1.8833486    -2.4074903
H           2.0634561     1.5239743    -1.7126374
H           0.8877168     2.4694204    -0.7895628
H           0.6455663    -0.5066968    -1.5383867
C          -1.1518973     0.4967705    -0.8836877
H          -1.4127978     1.3976305    -0.3066916
H          -1.4800657     0.6905613    -1.9128114
C          -1.9069847    -0.7033564    -0.3030408
H          -1.7394734    -1.5858023    -0.9377543
H          -2.9869666    -0.5088503    -0.3147804
C          -1.4257767    -1.0030175     1.1202862
H          -1.9251722    -1.8926310     1.5234101
H          -1.6963054    -0.1663463     1.7811826
C           0.0918055    -1.2066913     1.1355305
H           0.3537063    -2.0990444     0.5508670
H           0.4597551    -1.3795879     2.1531871
C           0.8606140    -0.0199777     0.5427722
H           0.6957483     0.8678650     1.1783450
O           2.2429730    -0.4256482     0.6880381
C           5.5514952     1.4453689    -1.0245402
H           6.4272145     1.9176861    -1.4607474
C           4.8522637     2.0774696     0.0071361
H           5.1866693     3.0425092     0.3793788
C           3.7308015     1.4723102     0.5735412
H           3.1905692     1.9492604     1.3863255
C           3.2920270     0.2319733     0.0939922
C           3.9983760    -0.4119298    -0.9263785
H           3.6553936    -1.3844124    -1.2663479
C           5.1242245     0.1972362    -1.4827604
H           5.6687191    -0.3066948    -2.2772293
32
372_C13H18O_0-18-20-27 (60,) energy =    -581.4504267
C           0.3297831     0.2901735    -0.9532566
C           0.9971071     1.4935433    -1.6368038
H           0.4339583     1.7586570    -2.5402354
H           2.0277347     1.2952808    -1.9345743
H           1.0001933     2.3731874    -0.9810524
H           0.4490534    -0.5888566    -1.6061933
C          -1.1858784     0.5688730    -0.8035268
H          -1.3184439     1.4793118    -0.1982428
H          -1.5977387     0.8004343    -1.7940751
C          -1.9683436    -0.5813483    -0.1596071
H          -1.9319203    -1.4619862    -0.8173539
H          -3.0263982    -0.3075075    -0.0605776
C          -1.3748439    -0.9439529     1.2063297
H          -1.8947556    -1.8065931     1.6408211
H          -1.5242822    -0.1060599     1.9031338
C           0.1215014    -1.2489487     1.0792655
H           0.2689537    -2.1477304     0.4650240
H           0.5675137    -1.4602110     2.0577518
C           0.9027599    -0.1025463     0.4290700
H           0.8426211     0.7843822     1.0829834
O           2.2650195    -0.5816115     0.4226334
C           5.5992888     1.5655826    -0.8656748
H           6.4828262     2.1052726    -1.1944825
C           4.7355518     2.1342348     0.0733776
H           4.9496627     3.1180201     0.4834274
C           3.6022116     1.4446895     0.5040137
H           2.9427033     1.8812945     1.2480451
C           3.3160212     0.1791627    -0.0241296
C           4.1846129    -0.3997828    -0.9552224
H           3.9530862    -1.3894147    -1.3370459
C           5.3214231     0.2936426    -1.3711465
H           5.9905783    -0.1625626    -2.0962235
32
372_C13H18O_0-18-20-27 (75,) energy =    -581.4532549
C           0.2548498     0.2527803    -1.0233724
C           0.9404091     1.3973946    -1.7817462
H           0.3603818     1.6452091    -2.6792628
H           1.9531320     1.1410283    -2.1001834
H           1.0020445     2.3043500    -1.1674880
H           0.2783404    -0.6441764    -1.6619765
C          -1.2259482     0.6062739    -0.7549990
H          -1.2680201     1.5243803    -0.1482631
H          -1.7103932     0.8497245    -1.7093319
C          -1.9956759    -0.5097752    -0.0376252
H          -2.0534312    -1.3913891    -0.6924656
H          -3.0289296    -0.1934421     0.1535146
C          -1.3022163    -0.8973263     1.2743495
H          -1.8190467    -1.7384024     1.7526241
H          -1.3605541    -0.0548436     1.9792839
C           0.1676162    -1.2611854     1.0298125
H           0.2312208    -2.1678012     0.4126460
H           0.6811897    -1.4843697     1.9719448
C           0.9279091    -0.1439481     0.3100467
H           0.9540247     0.7427717     0.9624810
O           2.2640738    -0.6593011     0.1475921
C           5.6724006     1.6007701    -0.6820507
H           6.5752944     2.1646758    -0.8979833
C           4.7028339     2.1206826     0.1767504
H           4.8527008     3.0929781     0.6393613
C           3.5402822     1.4027608     0.4623676
H           2.8055381     1.8136473     1.1469809
C           3.3346536     0.1505658    -0.1314289
C           4.3090959    -0.3788329    -0.9871608
H           4.1353446    -1.3564457    -1.4262370
C           5.4697528     0.3437313    -1.2569113
H           6.2174531    -0.0776840    -1.9239780
32
372_C13H18O_0-18-20-27 (90,) energy =    -581.4549476
C           0.1399258     0.2781523    -1.0900665
C           0.7901855     1.4139027    -1.8897696
H           0.1769162     1.6548045    -2.7665021
H           1.7893410     1.1471141    -2.2440430
H           0.8799925     2.3271872    -1.2883316
H           0.0999161    -0.6134597    -1.7349024
C          -1.3065050     0.6430585    -0.6916416
H          -1.2877618     1.5532116    -0.0719243
H          -1.8719240     0.9017325    -1.5962125
C          -2.0156993    -0.4800396     0.0768672
H          -2.1415841    -1.3494525    -0.5846615
H          -3.0240233    -0.1604180     0.3688222
C          -1.2080409    -0.8970731     1.3131973
H          -1.6878042    -1.7423843     1.8216229
H          -1.1950602    -0.0671728     2.0352654
C           0.2321289    -1.2672631     0.9333210
H           0.2344380    -2.1624136     0.2965748
H           0.8240667    -1.5107640     1.8232285
C           0.9292886    -0.1372399     0.1689054
H           1.0220960     0.7302787     0.8362074
O           2.2339020    -0.6436319    -0.1651768
C           5.7701139     1.5499167    -0.4959486
H           6.7064785     2.0923770    -0.5882623
C           4.6945044     2.1085847     0.1923357
H           4.7900454     3.0928987     0.6439498
C           3.4835866     1.4225300     0.3186815
H           2.6684777     1.8835205     0.8644634
C           3.3419792     0.1540467    -0.2592746
C           4.4241336    -0.4116645    -0.9511541
H           4.2963580    -1.3976968    -1.3871839
C           5.6251799     0.2813325    -1.0653043
H           6.4522969    -0.1723403    -1.6054412
32
372_C13H18O_0-18-20-27 (105,) energy =    -581.4556799
C           0.0869526     0.1604317    -1.2054025
C           0.7177651     1.1953639    -2.1443622