32
372_C13H18O_18-20-27-25 (-165,) energy =    -581.4582181
C          -0.3129669     0.7272072    -1.0657427
C          -0.1810372     2.2351150    -1.3078764
H          -1.0541091     2.6188106    -1.8486380
H           0.7129709     2.4639084    -1.8942381
H          -0.1124328     2.7814034    -0.3578677
H          -0.3784369     0.2227888    -2.0419406
C          -1.5869773     0.3922505    -0.2637927
H          -1.5578596     0.9342495     0.6942108
H          -2.4622266     0.7746551    -0.8045641
C          -1.7426817    -1.1102389     0.0093666
H          -1.8946008    -1.6398618    -0.9423160
H          -2.6388154    -1.2929605     0.6157136
C          -0.4990888    -1.6752293     0.7092460
H          -0.5923635    -2.7592760     0.8485676
H          -0.4188600    -1.2385780     1.7159595
C           0.7732629    -1.3585493    -0.0905007
H           0.7374730    -1.8644622    -1.0649094
H           1.6623497    -1.7383068     0.4259848
C           0.9198894     0.1468777    -0.3512391
H           1.0558180     0.6849874     0.5987566
O           2.0575015     0.3947561    -1.1954284
C           5.8889657     1.2241550     0.2325817
H           6.8940661     1.4490397     0.5772253
C           5.5232796     1.4667273    -1.0955429
H           6.2447218     1.8871463    -1.7915380
C           4.2354095     1.1836647    -1.5374966
H           3.9345184     1.3733037    -2.5633428
C           3.2890992     0.6394466    -0.6554388
C           3.6494149     0.3917295     0.6758310
H           2.9403674    -0.0350165     1.3758799
C           4.9458091     0.6889098     1.1071898
H           5.2137379     0.4910094     2.1420473
32
372_C13H18O_18-20-27-25 (-150,) energy =    -581.4572529
C          -0.2446920     0.6807951    -1.0745300
C          -0.0054960     2.1703265    -1.3460143
H          -0.8494574     2.6050838    -1.8943312
H           0.9013724     2.3239012    -1.9373054
H           0.1036067     2.7290769    -0.4071429
H          -0.3467502     0.1634076    -2.0407757
C          -1.5396666     0.4543140    -0.2679567
H          -1.4714235     1.0106798     0.6797827
H          -2.3853679     0.8883831    -0.8168058
C          -1.8023353    -1.0277429     0.0331108
H          -1.9900006    -1.5633622    -0.9088047
H          -2.7099759    -1.1350585     0.6403776
C          -0.6028988    -1.6653677     0.7474092
H          -0.7733546    -2.7369449     0.9087061
H          -0.4932747    -1.2146856     1.7451021
C           0.6903989    -1.4566196    -0.0542571
H           0.6232246    -1.9829240    -1.0162024
H           1.5500401    -1.8843616     0.4752489
C           0.9450216     0.0271980    -0.3490984
H           1.1272167     0.5720984     0.5887524
O           2.1026910     0.1617889    -1.1968499
C           5.8293019     1.3741050     0.2359681
H           6.8058490     1.6962083     0.5857106
C           5.4139470     1.6611490    -1.0677225
H           6.0662637     2.2148097    -1.7382432
C           4.1596181     1.2563638    -1.5153649
H           3.8198734     1.4797928    -2.5220904
C           3.3057566     0.5392973    -0.6652402
C           3.7175199     0.2458412     0.6414676
H           3.0743774    -0.3166146     1.3096849
C           4.9744110     0.6687084     1.0817822
H           5.2848063     0.4338612     2.0968298
32
372_C13H18O_18-20-27-25 (-135,) energy =    -581.4559060
C          -0.1745928     0.6395030    -1.0884342
C           0.1477544     2.1089148    -1.3819309
H          -0.6738111     2.5834561    -1.9314299
H           1.0572126     2.2044098    -1.9814426
H           0.2953175     2.6737417    -0.4521047
H          -0.2977722     0.1124709    -2.0469758
C          -1.4877818     0.5010780    -0.2907288
H          -1.3955601     1.0674485     0.6490510
H          -2.3021543     0.9747240    -0.8541524
C          -1.8384203    -0.9581336     0.0299854
H          -2.0449149    -1.4974000    -0.9059281
H          -2.7579761    -1.0039858     0.6270316
C          -0.6856618    -1.6505546     0.7692583
H          -0.9186618    -2.7079844     0.9453125
H          -0.5622748    -1.1902399     1.7608855
C           0.6268242    -1.5288482    -0.0188974
H           0.5453032    -2.0741715    -0.9691283
H           1.4557844    -1.9879759     0.5333415
C           0.9698569    -0.0694793    -0.3420783
H           1.1817193     0.4788973     0.5873480
O           2.1490805    -0.0373398    -1.1765130
C           5.7562005     1.5164669     0.2352448
H           6.7006245     1.9238380     0.5845602
C           5.2654037     1.8550371    -1.0284061
H           5.8254506     2.5336696    -1.6666910
C           4.0495458     1.3412905    -1.4753771
H           3.6527647     1.5999542    -2.4523193
C           3.3203058     0.4609019    -0.6665854
C           3.8094928     0.1156163     0.6000094
H           3.2544702    -0.5739055     1.2283386
C           5.0213376     0.6485073     1.0437230
H           5.3945818     0.3729344     2.0268383
32
372_C13H18O_18-20-27-25 (-120,) energy =    -581.4542680
C          -0.1496019     0.5987579    -1.1375755
C           0.1858248     2.0452952    -1.5161883
H          -0.6362116     2.4958032    -2.0849668
H           1.0889238     2.0971659    -2.1296574
H           0.3480031     2.6611678    -0.6219806
H          -0.2746511     0.0181692    -2.0644370
C          -1.4701945     0.5246726    -0.3425545
H          -1.3746646     1.1405791     0.5652188
H          -2.2727268     0.9798949    -0.9373203
C          -1.8477259    -0.9080597     0.0555117
H          -2.0558973    -1.4953411    -0.8506833
H          -2.7723013    -0.9058997     0.6465639
C          -0.7111585    -1.5748375     0.8410109
H          -0.9603917    -2.6177329     1.0730521
H          -0.5881448    -1.0622509     1.8066456
C           0.6085064    -1.5152779     0.0580197
H           0.5265558    -2.1117726    -0.8609998
H           1.4243683    -1.9554379     0.6436643
C           0.9803944    -0.0822925    -0.3437799
H           1.1967448     0.5122651     0.5559071
O           2.1733724    -0.1234446    -1.1641352
C           5.7307091     1.5246272     0.2777776
H           6.6605214     1.9542398     0.6397738
C           5.1362031     2.0120646    -0.8881316
H           5.6006612     2.8275544    -1.4366086
C           3.9380357     1.4682761    -1.3509007
H           3.4666340     1.8389781    -2.2555701
C           3.3351482     0.4120930    -0.6590427
C           3.9304046    -0.0820234     0.5086942
H           3.4681808    -0.9085330     1.0394687
C           5.1213212     0.4784539     0.9728411
H           5.5782596     0.0870488     1.8782188
32
372_C13H18O_18-20-27-25 (-105,) energy =    -581.4538054
C          -0.2755026     0.5260530    -1.2889746
C          -0.1442556     1.9031861    -1.9497203
H          -0.9989221     2.1001012    -2.6076830
H           0.7695214     1.9680877    -2.5458554
H          -0.1172693     2.7000312    -1.1944194
H          -0.2813263    -0.2380260    -2.0816845
C          -1.5941921     0.4071061    -0.4987726
H          -1.6267653     1.2006730     0.2637967
H          -2.4365172     0.5988063    -1.1760128
C          -1.7565115    -0.9571853     0.1836891
H          -1.8424435    -1.7410240    -0.5829319
H          -2.6876399    -0.9829548     0.7638530
C          -0.5546964    -1.2605244     1.0867653
H          -0.6474988    -2.2577915     1.5344719
H          -0.5395478    -0.5454421     1.9225741
C           0.7665733    -1.1620187     0.3079315
H           0.8057221    -1.9412660    -0.4658926
H           1.6103330    -1.3355724     0.9841361
C           0.9230223     0.2005824    -0.3798537
H           1.0137858     0.9882273     0.3854816
O           2.1018596     0.2487398    -1.2187808
C           5.8430768     1.1612751     0.4034395
H           6.8234139     1.4027732     0.8046715
C           5.1138545     2.1234690    -0.2984592
H           5.5265933     3.1176485    -0.4493631
C           3.8553505     1.8143261    -0.8144780
H           3.2791533     2.5496167    -1.3680595
C           3.3126515     0.5384288    -0.6249460
C           4.0534252    -0.4364006     0.0545566
H           3.6578965    -1.4418745     0.1472971
C           5.3100703    -0.1177538     0.5728160
H           5.8791911    -0.8792141     1.0999393
32
372_C13H18O_18-20-27-25 (-90,) energy =    -581.4551360
C          -0.2713486     0.4805502    -1.3642182
C          -0.1754001     1.7939481    -2.1490825
H          -1.0298821     1.9041308    -2.8271781
H           0.7419482     1.8314019    -2.7422505
H          -0.1783186     2.6573272    -1.4701333
H          -0.2578561    -0.3536845    -2.0825072
C          -1.5832113     0.3999331    -0.5573209
H          -1.6345340     1.2618135     0.1259412
H          -2.4340450     0.5022617    -1.2432513
C          -1.7045703    -0.8967788     0.2546708
H          -1.7752440    -1.7521491    -0.4329950
H          -2.6315635    -0.8901048     0.8419622
C          -0.4899596    -1.0857299     1.1731567
H          -0.5558078    -2.0399292     1.7104935
H          -0.4873969    -0.2970291     1.9399539
C           0.8208761    -1.0261848     0.3740254
H           0.8675328    -1.8685941    -0.3302926
H           1.6821734    -1.1203940     1.0453228
C           0.9321003     0.2741370    -0.4308665
H           0.9927494     1.1278581     0.2644293
O           2.1165319     0.2831364    -1.2610153
C           5.8283692     1.0698007     0.4826730
H           6.8023303     1.2764076     0.9175435
C           5.0197071     2.1195030     0.0408148
H           5.3655195     3.1464669     0.1259983
C           3.7706025     1.8569065    -0.5224539
H           3.1374033     2.6614790    -0.8850877
C           3.3194878     0.5373903    -0.6353222
C           4.1337899    -0.5173397    -0.2094144
H           3.7867092    -1.5375417    -0.3391299
C           5.3835108    -0.2471638     0.3510248
H           6.0129967    -1.0701507     0.6795804
32
372_C13H18O_18-20-27-25 (-75,) energy =    -581.4560466
C          -0.2552222     0.4383779    -1.3963430
C          -0.1454922     1.7033858    -2.2553362
H          -0.9891610     1.7748298    -2.9518659
H           0.7811105     1.7052100    -2.8354264
H          -0.1570779     2.6052217    -1.6284196
H          -0.2434946    -0.4362594    -2.0648318
C          -1.5706488     0.4120110    -0.5915917
H          -1.6203642     1.3133278     0.0388929
H          -2.4183341     0.4773261    -1.2858827
C          -1.7020990    -0.8336303     0.2959512
H          -1.7754459    -1.7278192    -0.3400932
H          -2.6314650    -0.7865713     0.8776247
C          -0.4923566    -0.9759958     1.2298902
H          -0.5667799    -1.8969786     1.8212781
H          -0.4883308    -0.1441172     1.9496629
C           0.8207640    -0.9702682     0.4332342
H           0.8645377    -1.8519597    -0.2212943
H           1.6835194    -1.0296701     1.1074734
C           0.9406631     0.2800254    -0.4457208
H           1.0018349     1.1723123     0.1984551
O           2.1325389     0.2195906    -1.2607781
C           5.8345660     1.0470969     0.4817051
H           6.8067369     1.2607867     0.9170957
C           4.9239163     2.0815354     0.2530579
H           5.1895543     3.1051481     0.5043237
C           3.6771553     1.8125152    -0.3120515
H           2.9717232     2.6133170    -0.5148184
C           3.3312125     0.4962751    -0.6388897
C           4.2426495    -0.5409165    -0.4192761
H           3.9631496    -1.5518465    -0.6996356
C           5.4914923    -0.2620587     0.1383247
H           6.1971824    -1.0717818     0.3051625
32
372_C13H18O_18-20-27-25 (-60,) energy =    -581.4565865
C          -0.2439164     0.3929143    -1.4145782
C          -0.1138795     1.6065139    -2.3421356
H          -0.9439896     1.6399791    -3.0575042
H           0.8236272     1.5733052    -2.9036228
H          -0.1338446     2.5428205    -1.7683108
H          -0.2221653    -0.5187927    -2.0311316
C          -1.5735093     0.4142521    -0.6332235
H          -1.6329136     1.3503096    -0.0564416
H          -2.4084917     0.4403435    -1.3452168
C          -1.7231141    -0.7785636     0.3218638
H          -1.7869144    -1.7075142    -0.2633207
H          -2.6627006    -0.6973287     0.8829417
C          -0.5309099    -0.8689087     1.2847430
H          -0.6182693    -1.7545212     1.9262215
H          -0.5385419     0.0026807     1.9559209
C           0.7962414    -0.9095912     0.5129774
H           0.8511301    -1.8270898    -0.0890970
H           1.6483760    -0.9294732     1.2032257
C           0.9330200     0.2880728    -0.4339850
H           0.9803591     1.2150047     0.1583157
O           2.1377650     0.1678642    -1.2197638
C           5.8606032     1.0318330     0.4589317
H           6.8392355     1.2516325     0.8761815
C           4.8600236     2.0061313     0.4613072
H           5.0609894     2.9913564     0.8743876
C           3.6028736     1.7335487    -0.0791121
H           2.8360064     2.5020741    -0.1020984
C           3.3368809     0.4671323    -0.6147548
C           4.3372699    -0.5103249    -0.6220289
H           4.1127868    -1.4814010    -1.0525108
C           5.5949329    -0.2240342    -0.0907765
H           6.3675990    -0.9884912    -0.1023682
32
372_C13H18O_18-20-27-25 (-45,) energy =    -581.4569877
C          -0.2391888     0.3273562    -1.4489515
C          -0.1382504     1.4537599    -2.4842285
H          -0.9518293     1.3825068    -3.2156434
H           0.8129492     1.4108355    -3.0213376
H          -0.2113557     2.4375411    -2.0017418
H          -0.1607227    -0.6362062    -1.9752449
C          -1.5883562     0.3607374    -0.7028063
H          -1.7039392     1.3426936    -0.2182626
H          -2.4043104     0.2821351    -1.4327077
C          -1.7108153    -0.7439683     0.3563559
H          -1.7187207    -1.7250675    -0.1404381
H          -2.6671707    -0.6543964     0.8869517
C          -0.5411780    -0.6900652     1.3491039
H          -0.6060006    -1.5161098     2.0679881
H          -0.6048361     0.2380919     1.9362378
C           0.8068514    -0.7405504     0.6151146
H           0.9183500    -1.7058300     0.1022338
H           1.6390108    -0.6583826     1.3243475
C           0.9149985     0.3700381    -0.4362701
H           0.8956528     1.3504201     0.0638119
O           2.1356241     0.2374616    -1.1906482
C           5.9010709     0.9327222     0.4720572
H           6.8923542     1.1066326     0.8807549
C           4.8506074     1.7991566     0.7777268
H           5.0234998     2.6569300     1.4227877
C           3.5738763     1.5870571     0.2542236
H           2.7732828     2.2830074     0.4828837
C           3.3393532     0.4836225    -0.5764841
C           4.3913738    -0.3866539    -0.8867397
H           4.1892035    -1.2309941    -1.5385962
C           5.6643899    -0.1579036    -0.3681826
H           6.4731581    -0.8401259    -0.6173050
32
372_C13H18O_18-20-27-25 (-30,) energy =    -581.4577524
C          -0.2256717     0.2732409    -1.4566739
C          -0.1057269     1.3303979    -2.5607512
H          -0.9068672     1.2113870    -3.2996333
H           0.8542352     1.2534154    -3.0780557
H          -0.1861378     2.3432350    -2.1442225
H          -0.1384509    -0.7223571    -1.9178416
C          -1.5878717     0.3550220    -0.7388027
H          -1.7106204     1.3661417    -0.3205668
H          -2.3904031     0.2301688    -1.4770465
C          -1.7315101    -0.6793699     0.3864224
H          -1.7323134    -1.6903113    -0.0464299
H          -2.6969333    -0.5552810     0.8930696
C          -0.5796087    -0.5626838     1.3941607
H          -0.6577980    -1.3416844     2.1624935
H          -0.6526702     0.4006826     1.9203888
C           0.7815302    -0.6599489     0.6896922
H           0.8997069    -1.6547949     0.2386778
H           1.5997461    -0.5378494     1.4087087
C           0.9107594     0.3824542    -0.4276659
H           0.8808187     1.3951347     0.0035409
O           2.1400932     0.2069502    -1.1542698
C           5.9252674     0.9222764     0.4503874
H           6.9227633     1.1014838     0.8410225
C           4.8313889     1.6189449     0.9624344
H           4.9739427     2.3494916     1.7548090
C           3.5436763     1.3988651     0.4669074
H           2.7097620     1.9600672     0.8742784
C           3.3445732     0.4568135    -0.5508531
C           4.4424513    -0.2449205    -1.0681315
H           4.2664216    -0.9657557    -1.8606842
C           5.7213401    -0.0092012    -0.5718017
H           6.5630067    -0.5605520    -0.9831963
32
372_C13H18O_18-20-27-25 (-15,) energy =    -581.4583682
C          -0.2048527     0.2280845    -1.4488785
C          -0.0206107     1.2402346    -2.5857035
H          -0.8133706     1.1296703    -3.3348444
H           0.9436737     1.1046238    -3.0825381
H          -0.0644122     2.2694794    -2.2055965
H          -0.1526755    -0.7857930    -1.8741798
C          -1.5745063     0.3925264    -0.7599033
H          -1.6600001     1.4214349    -0.3772971
H          -2.3686645     0.2780218    -1.5087898
C          -1.7833056    -0.5964402     0.3956310
H          -1.8217593    -1.6202830    -0.0038548
H          -2.7507274    -0.4130667     0.8799469
C          -0.6448745    -0.4967124     1.4203278
H          -0.7698322    -1.2462339     2.2114498
H          -0.6851738     0.4855088     1.9143694
C           0.7226007    -0.6749901     0.7443491
H           0.8031205    -1.6868865     0.3242416
H           1.5331074    -0.5705617     1.4745816
C           0.9175072     0.3252103    -0.4024650
H           0.9255641     1.3530100    -0.0082634
O           2.1505423     0.0719960    -1.0957489
C           5.9375256     0.9942094     0.3948912
H           6.9359909     1.2247757     0.7547611
C           4.8169197     1.5285289     1.0273608
H           4.9383066     2.1827176     1.8871161
C           3.5261122     1.2393474     0.5745017
H           2.6733594     1.6706628     1.0862625
C           3.3534525     0.3956457    -0.5307166
C           4.4801517    -0.1451034    -1.1691008
H           4.3245901    -0.7940505    -2.0255332
C           5.7579723     0.1548501    -0.7093430
H           6.6199740    -0.2713488    -1.2162442
32
372_C13H18O_18-20-27-25 (0,) energy =    -581.4584793
C          -0.1881388     0.1855304    -1.4239903
C           0.0598128     1.1738132    -2.5696655
H          -0.7229894     1.0871707    -3.3322948
H           1.0260858     0.9903718    -3.0469985
H           0.0534937     2.2089967    -2.2035544
H          -0.1733641    -0.8349918    -1.8361489
C          -1.5615719     0.4190477    -0.7629388
H          -1.6084282     1.4557748    -0.3950290
H          -2.3465442     0.3294925    -1.5248350
C          -1.8344078    -0.5444217     0.4004322
H          -1.9079730    -1.5710338     0.0131326
H          -2.8025742    -0.3144083     0.8628702
C          -0.7127333    -0.4789698     1.4460301
H          -0.8851808    -1.2118138     2.2438005
H          -0.7205530     0.5106869     1.9266837
C           0.6584304    -0.7249217     0.7994564
H           0.7040319    -1.7454679     0.3956225
H           1.4586246    -0.6458951     1.5439762
C           0.9198926     0.2478271    -0.3587351
H           0.9748769     1.2804724     0.0182365
O           2.1535329    -0.0775985    -1.0196932
C           5.9306125     1.1107825     0.2975434
H           6.9265047     1.4077931     0.6130598
C           4.8123295     1.4827146     1.0399309
H           4.9327329     2.0743959     1.9439630
C           3.5247563     1.1043337     0.6462070
H           2.6755609     1.4045283     1.2488662
C           3.3531803     0.3424029    -0.5171507
C           4.4786174    -0.0359525    -1.2663088
H           4.3246246    -0.6267902    -2.1641060
C           5.7522072     0.3461914    -0.8602558
H           6.6123871     0.0457028    -1.4530788
32
372_C13H18O_18-20-27-25 (15,) energy =    -581.4582379
C          -0.1477277     0.1448290    -1.4004603
C           0.1857623     1.1000077    -2.5520874
H          -0.5766370     1.0412452    -3.3376957
H           1.1551163     0.8588864    -2.9966711
H           0.2225085     2.1401396    -2.2021794
H          -0.1726175    -0.8818809    -1.7965864
C          -1.5275709     0.4582053    -0.7870219
H          -1.5326036     1.5016181    -0.4353880
H          -2.2918635     0.3969399    -1.5724236
C          -1.8865967    -0.4712351     0.3806545
H          -2.0016771    -1.4988251     0.0063509
H          -2.8554131    -0.1836027     0.8081826
C          -0.7965961    -0.4461527     1.4608796
H          -1.0313105    -1.1557710     2.2637482
H          -0.7686421     0.5506484     1.9258150
C           0.5792917    -0.7717714     0.8612465
H           0.5841024    -1.7995182     0.4734450
H           1.3599900    -0.7240303     1.6291446
C           0.9285089     0.1676149    -0.3011955
H           1.0299293     1.2006444     0.0635368
O           2.1676424    -0.2378788    -0.9084848
C           5.9148386     1.2152725     0.2110187
H           6.9024222     1.5789412     0.4793135
C           4.8259511     1.4449313     1.0492546
H           4.9615404     1.9881011     1.9811761
C           3.5501573     0.9783209     0.7181594
H           2.7244327     1.1588444     1.3967485
C           3.3583159     0.2798043    -0.4813494
C           4.4542785     0.0427273    -1.3253457
H           4.2857233    -0.5057611    -2.2470660
C           5.7187776     0.5064204    -0.9787350
H           6.5566246     0.3165056    -1.6447786
32
372_C13H18O_18-20-27-25 (30,) energy =    -581.4574139
C          -0.0947932     0.1058384    -1.3681550
C           0.3332995     1.0322066    -2.5118911
H          -0.3971126     1.0030206    -3.3289430
H           1.3072488     0.7398423    -2.9138650
H           0.4066439     2.0728040    -2.1692447
H          -0.1536679    -0.9222464    -1.7571619
C          -1.4824051     0.4922350    -0.8168435
H          -1.4509673     1.5376804    -0.4726373
H          -2.2149179     0.4615067    -1.6337500
C          -1.9353361    -0.4082097     0.3408460
H          -2.0836111    -1.4325827    -0.0306042
H          -2.9064615    -0.0707428     0.7244208
C          -0.8923408    -0.4242630     1.4666659
H          -1.1950229    -1.1131527     2.2648744
H          -0.8362955     0.5750566     1.9235710
C           0.4909795    -0.8210553     0.9302377
H           0.4646145    -1.8533563     0.5554328
H           1.2401933    -0.7993246     1.7304863
C           0.9353960     0.0853238    -0.2249870
H           1.0787654     1.1141611     0.1365319
O           2.1811533    -0.3955415    -0.7665590
C           5.8803631     1.3261421     0.1020356
H           6.8547602     1.7588811     0.3093620
C           4.8533176     1.4186106     1.0402979
H           5.0261983     1.9199884     1.9892919
C           3.5975791     0.8606023     0.7867908
H           2.8188585     0.9251131     1.5389924
C           3.3589109     0.2161506    -0.4343814
C           4.3918634     0.1150442    -1.3770765
H           4.1901460    -0.3981390    -2.3123883
C           5.6414878     0.6651082    -1.1065324
H           6.4319701     0.5824486    -1.8481041
32
372_C13H18O_18-20-27-25 (45,) energy =    -581.4561546
C          -0.0467245     0.0835044    -1.3390271
C           0.4592088     0.9847952    -2.4708612
H          -0.2453938     0.9845016    -3.3108526
H           1.4311175     0.6483497    -2.8423425
H           0.5686152     2.0226019    -2.1296202
H          -0.1305113    -0.9442391    -1.7243481
C          -1.4392529     0.5275801    -0.8457179
H          -1.3801855     1.5727849    -0.5043481
H          -2.1390908     0.5215093    -1.6913878
C          -1.9729589    -0.3484091     0.2958661
H          -2.1428787    -1.3689769    -0.0768929
H          -2.9462534     0.0262000     0.6371748
C          -0.9786762    -0.3952157     1.4638647
H          -1.3392371    -1.0674123     2.2522704
H          -0.9049264     0.6043751     1.9175616
C           0.4104929    -0.8455390     0.9882369
H           0.3650085    -1.8818473     0.6263612
H           1.1274228    -0.8368830     1.8182016
C           0.9365579     0.0292837    -0.1560574
H           1.1126984     1.0525586     0.2062115
O           2.1879604    -0.5165037    -0.6285514
C           5.8351222     1.4185330    -0.0268794
H           6.7954053     1.9055133     0.1165995
C           4.9040856     1.3767042     1.0116183
H           5.1406717     1.8252155     1.9731986
C           3.6707923     0.7456024     0.8384810
H           2.9638692     0.6969264     1.6607237
C           3.3518125     0.1701583    -0.3987269
C           4.2880781     0.2016146    -1.4396400
H           4.0306857    -0.2675177    -2.3843630
C           5.5219438     0.8208936    -1.2503891
H           6.2395465     0.8417665    -2.0665942
32
372_C13H18O_18-20-27-25 (60,) energy =    -581.4546586
C          -0.0229473     0.0430733    -1.3257103
C           0.5176257     0.9067231    -2.4705296
H          -0.1761792     0.9012834    -3.3195509
H           1.4858956     0.5421409    -2.8232648
H           0.6449502     1.9497946    -2.1525298
H          -0.1132745    -0.9934204    -1.6853943
C          -1.4211702     0.5208431    -0.8810670
H          -1.3548607     1.5736274    -0.5652397
H          -2.0974138     0.5033080    -1.7456002
C          -2.0002409    -0.3162227     0.2669882
H          -2.1751843    -1.3438703    -0.0833714
H          -2.9768408     0.0815660     0.5706655
C          -1.0391506    -0.3448474     1.4623328
H          -1.4301475    -0.9901898     2.2586890
H          -0.9630055     0.6657239     1.8905893
C           0.3557089    -0.8266450     1.0374499
H           0.3065319    -1.8733277     0.7071440
H           1.0495161    -0.7999760     1.8864751
C           0.9296890     0.0042717    -0.1166732
H           1.1180718     1.0328828     0.2243868
O           2.1885086    -0.5845697    -0.5221540
C           5.7906534     1.4802894    -0.0878380
H           6.7386394     2.0003650     0.0167806
C           4.9762128     1.2705051     1.0264115
H           5.2927921     1.6196021     2.0060164
C           3.7623288     0.5937043     0.8997516
H           3.1421793     0.4082828     1.7716145
C           3.3403764     0.1473304    -0.3593672
C           4.1619053     0.3431325    -1.4749945
H           3.8361137    -0.0373107    -2.4380860
C           5.3808635     1.0062423    -1.3360560
H           6.0111153     1.1552372    -2.2090529
32
372_C13H18O_18-20-27-25 (75,) energy =    -581.4535666
C          -0.0854229    -0.1032965    -1.4064751
C           0.3378021     0.5486940    -2.7274686
H          -0.4115624     0.3656877    -3.5066393
H           1.2944574     0.1497116    -3.0745251
H           0.4407757     1.6361985    -2.6153330
H          -0.1492378    -1.1910976    -1.5639719
C          -1.4725651     0.3972079    -0.9547822
H          -1.4368627     1.4915268    -0.8380728
H          -2.2025908     0.1981068    -1.7499971
C          -1.9321225    -0.2379576     0.3637619
H          -2.0803389    -1.3176629     0.2163336
H          -2.9039503     0.1733836     0.6647581
C          -0.8913712    -0.0152687     1.4679700
H          -1.1955131    -0.5179277     2.3945117
H          -0.8342629     1.0582203     1.7014582
C           0.4952459    -0.5174844     1.0355327
H           0.4755317    -1.6076485     0.9005818
H           1.2293978    -0.3054504     1.8200931
C           0.9488974     0.1151912    -0.2868803
H           1.1010063     1.1965401    -0.1468249
O           2.1973941    -0.4644111    -0.7384744
C           5.8121844     1.4104562     0.2074962
H           6.7585335     1.8908983     0.4397044
C           5.1122056     0.7202111     1.1983268
H           5.5153202     0.6564599     2.2058422
C           3.8983626     0.0958159     0.9050822
H           3.3752386    -0.4716470     1.6668274
C           3.3717414     0.1685450    -0.3903667
C           4.0748554     0.8566642    -1.3857850
H           3.6580484     0.8977064    -2.3873446
C           5.2911047     1.4704542    -1.0867727
H           5.8310978     1.9994743    -1.8678661
32
372_C13H18O_18-20-27-25 (90,) energy =    -581.4548579
C          -0.1263157    -0.2183988    -1.4464788
C           0.1986092     0.2588783    -2.8666278
H          -0.5740593    -0.0686173    -3.5722267
H           1.1610773    -0.1348497    -3.2032309
H           0.2437951     1.3554108    -2.9109635
H          -0.1505512    -1.3191186    -1.4485739
C          -1.5055556     0.2918948    -0.9822924
H          -1.5128617     1.3919387    -1.0286704
H          -2.2715902    -0.0493155    -1.6905712
C          -1.8574562    -0.1563818     0.4425797
H          -1.9697881    -1.2502040     0.4634690
H          -2.8257299     0.2634942     0.7433061
C          -0.7627377     0.2591468     1.4338992
H          -0.9922687    -0.1090116     2.4415311
H          -0.7332192     1.3565844     1.5036555
C           0.6131087    -0.2611842     0.9897394
H           0.6218154    -1.3600130     1.0093944
H           1.3894979     0.0795581     1.6839124
C           0.9555702     0.1928907    -0.4344279
H           1.0590310     1.2905240    -0.4508853
O           2.2000673    -0.3837204    -0.8936551
C           5.7805297     1.3172990     0.4240767
H           6.7184672     1.7539164     0.7558220
C           5.1796376     0.2979508     1.1651808
H           5.6501634    -0.0632028     2.0760522
C           3.9750240    -0.2671723     0.7424651
H           3.5123198    -1.0755800     1.2992834
C           3.3687725     0.1867893    -0.4340574
C           3.9694576     1.2069935    -1.1796341
H           3.4891633     1.5413868    -2.0945909
C           5.1729072     1.7671726    -0.7503732
H           5.6380621     2.5552508    -1.3369318
32
372_C13H18O_18-20-27-25 (105,) energy =    -581.4558764
C          -0.1276560    -0.2705043    -1.4486238