29
380_C14H14O_21-0-3-10 (-165,) energy =    -617.1402695
C           1.0931558    -0.9358665     0.4975726
H           1.6674686    -1.5808703     1.1741530
H           0.6928340    -0.1000100     1.0892893
O           1.9591693    -0.4214916    -0.5238862
C           5.7436196     1.0817632     0.3696063
H           6.7351210     1.4747922     0.5746140
C           4.8694136     0.7933518     1.4146663
H           5.1753981     0.9645903     2.4436332
C           3.5897357     0.2869238     1.1637376
H           2.9231659     0.0835509     1.9942045
C           3.1848832     0.0621182    -0.1577080
C           4.0605254     0.3548721    -1.2143398
H           3.7238496     0.1726393    -2.2302525
C           5.3278598     0.8605189    -0.9482237
H           5.9979308     1.0806635    -1.7752893
C          -2.0267648    -3.2793292    -1.3315339
H          -2.8147335    -3.8691815    -1.7925276
C          -1.0075478    -3.9041197    -0.6162923
H          -0.9880043    -4.9854407    -0.5122856
C          -0.0057058    -3.1262491    -0.0347784
H           0.7959665    -3.6078181     0.5207720
C          -0.0092728    -1.7333417    -0.1536059
C          -1.0404883    -1.0955818    -0.8760571
C          -1.0822958     0.4081270    -1.0255847
H          -0.1535221     0.7911965    -1.4600317
H          -1.2114713     0.9066314    -0.0552914
H          -1.9153940     0.7148456    -1.6650944
C          -2.0356236    -1.8887888    -1.4569870
H          -2.8332029    -1.4060440    -2.0171242
29
380_C14H14O_21-0-3-10 (-150,) energy =    -617.1389255
C           0.9875870    -0.7510159     0.5557433
H           1.5977412    -1.3569813     1.2348103
H           0.5055630     0.0388608     1.1485467
O           1.8309787    -0.1435167    -0.4371956
C           5.8045568     0.8487933     0.3398535
H           6.8438022     1.1107137     0.5158325
C           4.9373095     0.6465478     1.4113385
H           5.2967683     0.7570825     2.4312830
C           3.5969100     0.3105186     1.1971607
H           2.9335385     0.1825645     2.0457100
C           3.1231627     0.1648151    -0.1126318
C           3.9908084     0.3733622    -1.1948107
H           3.6001791     0.2567073    -2.2009420
C           5.3196608     0.7137916    -0.9655334
H           5.9834548     0.8690175    -1.8121792
C          -1.8653419    -3.3332612    -1.3876293
H          -2.5849146    -3.9830116    -1.8789297
C          -0.8186319    -3.8766408    -0.6461441
H          -0.7093142    -4.9534726    -0.5514082
C           0.0944001    -3.0227633    -0.0261141
H           0.9168528    -3.4411018     0.5499589
C          -0.0249974    -1.6338632    -0.1322872
C          -1.0853516    -1.0788124    -0.8803209
C          -1.2513228     0.4177932    -1.0157362
H          -0.3423160     0.8860219    -1.4063034
H          -1.4635503     0.8891439    -0.0464400
H          -2.0808888     0.6605008    -1.6866074
C          -1.9901493    -1.9471523    -1.5000669
H          -2.8088340    -1.5278469    -2.0804951
29
380_C14H14O_21-0-3-10 (-135,) energy =    -617.1374919
C           0.8813120    -0.5921989     0.6475772
H           1.5060128    -1.1572791     1.3462026
H           0.3142036     0.1505116     1.2237737
O           1.7140686     0.1071723    -0.2969094
C           5.8122657     0.6191945     0.2723243
H           6.8820885     0.7599092     0.3961390
C           4.9858630     0.4822212     1.3864796
H           5.4089967     0.5244879     2.3869233
C           3.6075067     0.3039658     1.2389618
H           2.9765585     0.2316228     2.1188466
C           3.0515842     0.2477783    -0.0454455
C           3.8778064     0.3910245    -1.1688181
H           3.4241058     0.3464286    -2.1539843
C           5.2472125     0.5779465    -1.0062535
H           5.8785379     0.6839670    -1.8847298
C          -1.6760510    -3.3643366    -1.4432522
H          -2.3207377    -4.0615083    -1.9720925
C          -0.6284085    -3.8346863    -0.6547787
H          -0.4435731    -4.9011881    -0.5601990
C           0.1875688    -2.9205250     0.0130712
H           1.0099102    -3.2821154     0.6265922
C          -0.0297133    -1.5433450    -0.0917546
C          -1.0916308    -1.0624892    -0.8876260
C          -1.3616596     0.4188453    -1.0240526
H          -0.4716268     0.9567237    -1.3654130
H          -1.6572639     0.8648441    -0.0646213
H          -2.1720915     0.6049522    -1.7352473
C          -1.8984565    -1.9903145    -1.5545282
H          -2.7174740    -1.6280490    -2.1717693
29
380_C14H14O_21-0-3-10 (-120,) energy =    -617.1365478
C           0.7848022    -0.4527813     0.7559561
H           1.4004943    -0.9756468     1.4930738
H           0.1342115     0.2476825     1.2930015
O           1.6182038     0.3293313    -0.1236102
C           5.7771460     0.3941275     0.1783710
H           6.8614059     0.4231789     0.2354650
C           5.0125617     0.3025092     1.3411524
H           5.5000511     0.2691736     2.3122088
C           3.6174315     0.2689795     1.2790218
H           3.0367276     0.2333426     2.1954253
C           2.9790372     0.3123798     0.0329651
C           3.7427350     0.4092647    -1.1374526
H           3.2261205     0.4434084    -2.0915214
C           5.1324051     0.4537943    -1.0604760
H           5.7151153     0.5262334    -1.9752027
C          -1.4595388    -3.3709094    -1.4925731
H          -2.0256935    -4.1039609    -2.0613336
C          -0.4306688    -3.7781082    -0.6465002
H          -0.1822662    -4.8311158    -0.5463784
C           0.2832456    -2.8180509     0.0722788
H           1.0901921    -3.1296978     0.7319885
C          -0.0174045    -1.4570412    -0.0390884
C          -1.0602674    -1.0401365    -0.8943598
C          -1.4186124     0.4213618    -1.0410529
H          -0.5468647     1.0191063    -1.3250963
H          -1.8007265     0.8394692    -0.0997521
H          -2.1949872     0.5595629    -1.7996284
C          -1.7645959    -2.0133367    -1.6106879
H          -2.5686012    -1.7003896    -2.2730437
29
380_C14H14O_21-0-3-10 (-105,) energy =    -617.1376058
C           0.6255910    -0.1727125     0.7350367
H           1.1952716    -0.4957668     1.6122379
H          -0.1151641     0.5623090     1.0738571
O           1.4744445     0.5599681    -0.1649833
C           5.6349422     0.3058829    -0.0262573
H           6.7199655     0.2621866    -0.0036950
C           4.8757725    -0.7797771     0.4079525
H           5.3689496    -1.6810060     0.7632772
C           3.4792995    -0.7360763     0.3800369
H           2.9045142    -1.6043378     0.6824624
C           2.8344985     0.4193678    -0.0777620
C           3.5925563     1.5111029    -0.5220984
H           3.0705856     2.3949847    -0.8755468
C           4.9829070     1.4493032    -0.4976967
H           5.5605441     2.3034480    -0.8416397
C          -1.3585085    -3.5745526    -1.0365573
H          -1.8623337    -4.4289595    -1.4808017
C          -0.5130825    -3.7460762     0.0566770
H          -0.3475195    -4.7333849     0.4790218
C           0.1253840    -2.6328505     0.6051650
H           0.7840870    -2.7624035     1.4618779
C          -0.0684424    -1.3496952     0.0829416
C          -0.9347189    -1.1701967    -1.0179822
C          -1.1976370     0.1975117    -1.6052874
H          -0.2799164     0.6509217    -1.9913863
H          -1.5962481     0.8894968    -0.8514382
H          -1.9268740     0.1383902    -2.4189130
C          -1.5623512    -2.2966716    -1.5609551
H          -2.2290654    -2.1669522    -2.4104515
29
380_C14H14O_21-0-3-10 (-90,) energy =    -617.1387290
C           0.5465829    -0.1247582     0.8905656
H           1.0835363    -0.4533896     1.7881710
H          -0.2592883     0.5443352     1.2143047
O           1.3893553     0.7196032     0.0955911
C           5.5137166     0.1833400    -0.2130389
H           6.5901794     0.0708723    -0.3036508
C           4.7356973    -0.8575817     0.2893384
H           5.2035790    -1.7924977     0.5872665
C           3.3486476    -0.7273862     0.4088076
H           2.7605327    -1.5625502     0.7692070
C           2.7346869     0.4707063     0.0259243
C           3.5121151     1.5198194    -0.4861182
H           3.0139461     2.4396838    -0.7767345
C           4.8901371     1.3725485    -0.6045907
H           5.4818351     2.1942343    -0.9999110
C          -1.1395538    -3.5636849    -1.1083072
H          -1.5719302    -4.4270758    -1.6070771
C          -0.4040497    -3.7219370     0.0638457
H          -0.2542391    -4.7083142     0.4941147
C           0.1437719    -2.5970206     0.6812218
H           0.7160263    -2.7160456     1.5994893
C          -0.0317740    -1.3144099     0.1504431
C          -0.7892595    -1.1480800    -1.0298354
C          -1.0322562     0.2150748    -1.6362294
H          -0.1078767     0.6529095    -2.0255217
H          -1.4238005     0.9245749    -0.8963414
H          -1.7565356     0.1514991    -2.4541038
C          -1.3266089    -2.2870050    -1.6408163
H          -1.9099184    -2.1671929    -2.5509800
29
380_C14H14O_21-0-3-10 (-75,) energy =    -617.1389914
C           0.4206299    -0.1255992     1.0720474
H           0.8992076    -0.4762699     1.9958446
H          -0.4349441     0.4943888     1.3619960
O           1.2796145     0.7977545     0.3964472
C           5.3076363     0.0703032    -0.4041221
H           6.3597785    -0.0889861    -0.6214753
C           4.5624100    -0.9161087     0.2378186
H           5.0317846    -1.8544511     0.5222874
C           3.2063613    -0.7262242     0.5222079
H           2.6460498    -1.5179155     1.0029509
C           2.5895806     0.4758977     0.1578292
C           3.3347075     1.4720386    -0.4911097
H           2.8356369     2.3979765    -0.7603832
C           4.6818954     1.2672208    -0.7681482
H           5.2475244     2.0482118    -1.2697987
C          -0.9728761    -3.5490340    -1.1664209
H          -1.3349283    -4.4091256    -1.7234634
C          -0.3668503    -3.7184957     0.0763715
H          -0.2487783    -4.7102903     0.5040581
C           0.0926351    -2.5977996     0.7679943
H           0.5646456    -2.7258380     1.7404944
C          -0.0440448    -1.3078049     0.2430095
C          -0.6708527    -1.1302045    -1.0097932
C          -0.8684940     0.2381587    -1.6216361
H           0.0778456     0.6648183    -1.9699999
H          -1.2839387     0.9522628    -0.9007590
H          -1.5528876     0.1834046    -2.4740279
C          -1.1206242    -2.2657435    -1.6943004
H          -1.6039025    -2.1371856    -2.6601827
29
380_C14H14O_21-0-3-10 (-60,) energy =    -617.1382040
C           0.3334252    -0.1170452     1.2252372
H           0.7275857    -0.4945331     2.1792075
H          -0.5549319     0.4809353     1.4552943
O           1.2371999     0.8468116     0.6745829
C           5.1162052    -0.0238963    -0.5847958
H           6.1304229    -0.2208381    -0.9198624
C           4.4344505    -0.9609270     0.1894205
H           4.9174677    -1.8955601     0.4629194
C           3.1284189    -0.7215666     0.6262996
H           2.6181758    -1.4669593     1.2232294
C           2.4947509     0.4761830     0.2762769
C           3.1766799     1.4237655    -0.5010376
H           2.6685650     2.3500309    -0.7518587
C           4.4776360     1.1724938    -0.9254445
H           4.9950734     1.9153440    -1.5270671
C          -0.7901984    -3.5037555    -1.2107561
H          -1.0872841    -4.3555701    -1.8168001
C          -0.3054054    -3.6932960     0.0816304
H          -0.2181336    -4.6926356     0.4990418
C           0.0724744    -2.5834965     0.8366352
H           0.4511328    -2.7267993     1.8470466
C          -0.0272389    -1.2841682     0.3263694
C          -0.5311456    -1.0865700    -0.9776208
C          -0.6792699     0.2919094    -1.5804864
H           0.2921228     0.7157156    -1.8582940
H          -1.1396925     0.9989465    -0.8809476
H          -1.3013323     0.2530646    -2.4802587
C          -0.8999563    -2.2115721    -1.7253549
H          -1.2884010    -2.0672876    -2.7310055
29
380_C14H14O_21-0-3-10 (-45,) energy =    -617.1362409
C           0.2721399    -0.0903165     1.3117000
H           0.5479116    -0.4779877     2.3028737
H          -0.6260225     0.5224913     1.4428109
O           1.2569603     0.8645129     0.8867441
C           4.9749645    -0.1076389    -0.7317450
H           5.9489376    -0.3325276    -1.1567065
C           4.3501038    -1.0185082     0.1195784
H           4.8390969    -1.9578611     0.3648013
C           3.0979860    -0.7413001     0.6732241
H           2.6318947    -1.4569146     1.3395872
C           2.4563933     0.4626842     0.3594274
C           3.0829156     1.3845182    -0.4905731
H           2.5735806     2.3189305    -0.7062426
C           4.3348109     1.0985638    -1.0291882
H           4.8104444     1.8214173    -1.6870546
C          -0.6287521    -3.4730168    -1.2181329
H          -0.8719612    -4.3240416    -1.8488245
C          -0.2350972    -3.6658831     0.1045351
H          -0.1666355    -4.6671488     0.5208100
C           0.0742498    -2.5574706     0.8919734
H           0.3807654    -2.7028397     1.9261376
C          -0.0034679    -1.2559278     0.3834450
C          -0.4161239    -1.0556078    -0.9518990
C          -0.5347650     0.3262313    -1.5523730
H           0.4507513     0.7557919    -1.7654714
H          -1.0438002     1.0248912    -0.8784495
H          -1.0970413     0.2920084    -2.4907723
C          -0.7174895    -2.1787947    -1.7315548
H          -1.0355719    -2.0319106    -2.7612359
29
380_C14H14O_21-0-3-10 (-30,) energy =    -617.1335239
C           0.2178527    -0.0468464     1.3443259
H           0.3497037    -0.4256146     2.3673285
H          -0.6622440     0.6052229     1.3524530
O           1.3005193     0.8591454     1.0536683
C           4.8903206    -0.1082595    -0.8347839
H           5.8335269    -0.3319047    -1.3249390
C           4.2942004    -1.0468890     0.0078249
H           4.7758809    -2.0057866     0.1815219
C           3.0837885    -0.7698263     0.6465012
H           2.6414226    -1.5018747     1.3114317
C           2.4504894     0.4593714     0.4248628
C           3.0498778     1.4084898    -0.4144221
H           2.5515427     2.3628615    -0.5555917
C           4.2637670     1.1241468    -1.0363426
H           4.7191088     1.8687895    -1.6842246
C          -0.5198883    -3.4581020    -1.1968499
H          -0.7230937    -4.3165923    -1.8315869
C          -0.2040501    -3.6359064     0.1488019
H          -0.1580276    -4.6326363     0.5787979
C           0.0534726    -2.5184671     0.9418569
H           0.2974889    -2.6512555     1.9940961
C           0.0026579    -1.2224106     0.4154532
C          -0.3326129    -1.0378359    -0.9437804
C          -0.4196496     0.3379570    -1.5624000
H           0.5761643     0.7680148    -1.7204766
H          -0.9710159     1.0402428    -0.9262164
H          -0.9246538     0.2952189    -2.5323675
C          -0.5838310    -2.1697649    -1.7283741
H          -0.8425578    -2.0349004    -2.7761261
29
380_C14H14O_21-0-3-10 (-15,) energy =    -617.1309639
C           0.1857459    -0.0121067     1.3460784
H           0.1726052    -0.3646500     2.3851912
H          -0.6457062     0.6927113     1.2331284
O           1.3651041     0.8105784     1.1899222
C           4.8411204    -0.0958696    -0.9293442
H           5.7579275    -0.3040669    -1.4735590
C           4.2571182    -1.0796253    -0.1301129
H           4.7228450    -2.0581593    -0.0449359
C           3.0826894    -0.8218862     0.5792180
H           2.6503767    -1.5865200     1.2133652
C           2.4699635     0.4332423     0.4719773
C           3.0578273     1.4259289    -0.3238647
H           2.5778027     2.3986147    -0.3748857
C           4.2385598     1.1612842    -1.0158023
H           4.6858211     1.9405900    -1.6275784
C          -0.4677076    -3.4587173    -1.1685591
H          -0.6482669    -4.3265337    -1.7974394
C          -0.2075715    -3.6167666     0.1914502
H          -0.1835926    -4.6067374     0.6385163
C           0.0203045    -2.4876687     0.9770093
H           0.2195300    -2.6040559     2.0404857
C          -0.0033246    -1.1994250     0.4289644
C          -0.2826223    -1.0354950    -0.9457816
C          -0.3437427     0.3311373    -1.5871799
H           0.6521255     0.7824087    -1.6638582
H          -0.9657621     1.0264319    -1.0103462
H          -0.7621008     0.2677208    -2.5963107
C          -0.5063932    -2.1787319    -1.7222376
H          -0.7225252    -2.0597683    -2.7814441
29
380_C14H14O_21-0-3-10 (0,) energy =    -617.1293544
C           0.1596066     0.0056284     1.3474521
H           0.0098232    -0.3053048     2.3874604
H          -0.5996238     0.7636445     1.1216602
O           1.4203944     0.7214204     1.3246340
C           4.7865259    -0.0785854    -1.0059490
H           5.6773484    -0.2618967    -1.6001024
C           4.2189760    -1.1078491    -0.2528243
H           4.6712499    -2.0963469    -0.2541725
C           3.0793308    -0.8823787     0.5207154
H           2.6590680    -1.6809594     1.1203246
C           2.4843962     0.3859595     0.5261874
C           3.0562305     1.4228097    -0.2232767
H           2.5926733     2.4042015    -0.1866134
C           4.2037882     1.1902754    -0.9806223
H           4.6403366     2.0035979    -1.5547079
C          -0.4631910    -3.4753870    -1.1270457
H          -0.6332162    -4.3521814    -1.7463618
C          -0.2456379    -3.6117613     0.2427885
H          -0.2456272    -4.5940642     0.7070741
C          -0.0311398    -2.4710103     1.0152120
H           0.1340039    -2.5689541     2.0863377
C          -0.0250461    -1.1922134     0.4443192
C          -0.2611762    -1.0502021    -0.9411284
C          -0.2988731     0.3057272    -1.6073201
H           0.6799667     0.7972124    -1.5780575
H          -1.0122132     0.9802345    -1.1168647
H          -0.5970978     0.2143639    -2.6560566
C          -0.4728471    -2.2050309    -1.7037893
H          -0.6556218    -2.1031051    -2.7709659
29
380_C14H14O_21-0-3-10 (15,) energy =    -617.1290799
C           0.1474169     0.0335217     1.3308493
H          -0.1328721    -0.2217979     2.3573155
H          -0.5177523     0.8408916     1.0006295
O           1.4694803     0.6224855     1.4438809
C           4.7400680    -0.0506442    -1.0586695
H           5.6079145    -0.2054794    -1.6936549
C           4.2010703    -1.1146318    -0.3326185
H           4.6525357    -2.1013210    -0.3979435
C           3.0919528    -0.9254963     0.4929503
H           2.6893685    -1.7487629     1.0713160
C           2.5009003     0.3411885     0.5806483
C           3.0439403     1.4119698    -0.1410702
H           2.5855125     2.3912937    -0.0392937
C           4.1611475     1.2155979    -0.9531781
H           4.5775682     2.0545661    -1.5048888
C          -0.4381072    -3.4925221    -1.0892329
H          -0.5946328    -4.3811295    -1.6951636
C          -0.2429504    -3.6032644     0.2865257
H          -0.2475502    -4.5767188     0.7691256
C          -0.0472498    -2.4471881     1.0403014
H           0.0999453    -2.5246544     2.1157150
C          -0.0365097    -1.1781097     0.4465659
C          -0.2471015    -1.0628276    -0.9450801
C          -0.2787531     0.2787368    -1.6416677
H           0.6760947     0.8073153    -1.5470065
H          -1.0543791     0.9347948    -1.2260998
H          -0.4889651     0.1557134    -2.7083480
C          -0.4424224    -2.2331539    -1.6890509
H          -0.6054703    -2.1520405    -2.7611694
29
380_C14H14O_21-0-3-10 (30,) energy =    -617.1312232
C           1.1577749    -1.6285685     1.5084654
H           1.0691559    -2.6197353     1.9661996
H           0.7521494    -0.9058960     2.2252205
O           2.5826367    -1.4242549     1.4229012
C           4.5578181     0.9088029    -1.4127624
H           5.0979876     1.5098797    -2.1386274
C           3.3144974     1.3271964    -0.9371052
H           2.8830761     2.2608297    -1.2890788
C           2.6139049     0.5637126    -0.0018322
H           1.6553503     0.9067892     0.3715826
C           3.1569530    -0.6440016     0.4526305
C           4.4058578    -1.0662618    -0.0188512
H           4.8127590    -2.0007201     0.3554520
C           5.1012972    -0.2895793    -0.9433088
H           6.0703779    -0.6267638    -1.3022429
C          -1.0435440    -1.6574645    -2.2080263
H          -1.6008865    -1.6763077    -3.1408303
C           0.0976475    -2.4441550    -2.0511112
H           0.4419810    -3.0844554    -2.8585463
C           0.7927078    -2.4048515    -0.8456424
H           1.6839284    -3.0136339    -0.7166221
C           0.3771358    -1.5823470     0.2103876
C          -0.7780893    -0.7885822     0.0586791
C          -1.3008036     0.1092627     1.1612098
H          -0.5495996     0.8335679     1.5006861
H          -1.6177506    -0.4597529     2.0440246
H          -2.1677290     0.6783739     0.8123938
C          -1.4706242    -0.8452792    -1.1594017
H          -2.3624560    -0.2353201    -1.2837135
29
380_C14H14O_21-0-3-10 (45,) energy =    -617.1344978
C           1.1674960    -1.5299802     1.4596683
H           0.9801923    -2.4396582     2.0404422
H           0.8760253    -0.6811589     2.0908666
O           2.5929086    -1.5224867     1.3044489
C           4.6786309     0.9284122    -1.3467796
H           5.2473852     1.5558951    -2.0269070
C           3.4166784     1.3279501    -0.9076146
H           2.9974670     2.2731740    -1.2429025
C           2.6765118     0.5293710    -0.0329242
H           1.6989500     0.8574192     0.3021584
C           3.2038720    -0.6928692     0.3994210
C           4.4722887    -1.0978444    -0.0355397
H           4.8650509    -2.0454303     0.3204743
C           5.2027566    -0.2884153    -0.9015561
H           6.1857562    -0.6129932    -1.2330987
C          -1.1465685    -1.7129682    -2.1859537
H          -1.7342469    -1.7690131    -3.0984196
C           0.0405404    -2.4346117    -2.0636088
H           0.3906193    -3.0615599    -2.8790725
C           0.7767522    -2.3479580    -0.8845538
H           1.7040173    -2.9047185    -0.7828975
C           0.3538052    -1.5397611     0.1782590
C          -0.8495728    -0.8140444     0.0644412
C          -1.3790658     0.0592744     1.1829974
H          -0.6692152     0.8467930     1.4676819
H          -1.5979402    -0.5163238     2.0910276
H          -2.3068930     0.5524884     0.8779904
C          -1.5804175    -0.9170349    -1.1274123
H          -2.5083081    -0.3576391    -1.2227551
29
380_C14H14O_21-0-3-10 (60,) energy =    -617.1374653
C           1.1706975    -1.4231337     1.3687307
H           0.9215779    -2.2337049     2.0628133
H           0.9969103    -0.4794801     1.9029072
O           2.5712063    -1.5879503     1.1491184
C           4.8498169     0.9473017    -1.2544551
H           5.4685689     1.5928932    -1.8709143
C           3.5466812     1.3197134    -0.9296762
H           3.1427994     2.2610337    -1.2935296
C           2.7390327     0.4974855    -0.1388488
H           1.7254330     0.8033123     0.0920382
C           3.2468292    -0.7192727     0.3299687
C           4.5569575    -1.0991757     0.0074784
H           4.9304756    -2.0447110     0.3886744
C           5.3497066    -0.2688977    -0.7787109
H           6.3640752    -0.5745972    -1.0218128
C          -1.3135176    -1.7644465    -2.1523514
H          -1.9445149    -1.8567884    -3.0323317
C          -0.0820943    -2.4155626    -2.0948034
H           0.2595327    -3.0232311    -2.9283406
C           0.7132090    -2.2842444    -0.9577771
H           1.6741972    -2.7868012    -0.9068569
C           0.3008327    -1.5003094     0.1252886
C          -0.9483285    -0.8475709     0.0789552
C          -1.4579635    -0.0095619     1.2324545
H          -0.8042383     0.8474354     1.4428735
H          -1.5344257    -0.5870201     2.1623459
H          -2.4533594     0.3868109     1.0107601
C          -1.7360401    -0.9931006    -1.0704010
H          -2.6992016    -0.4894461    -1.1134137
29
380_C14H14O_21-0-3-10 (75,) energy =    -617.1392129
C           1.1902839    -1.3107105     1.2396605
H           0.9177225    -2.0156210     2.0342786
H           1.1187236    -0.3023136     1.6694824
O           2.5532904    -1.6139440     0.9622986
C           5.0615802     0.9691922    -1.1439069
H           5.7384363     1.6249654    -1.6837549
C           3.7216024     1.3156424    -0.9841172
H           3.3458030     2.2450913    -1.4041826
C           2.8381452     0.4799558    -0.2937256
H           1.7950580     0.7594585    -0.2047526
C           3.3109481    -0.7208303     0.2472099
C           4.6577219    -1.0768119     0.0875584
H           5.0003443    -2.0121532     0.5194598
C           5.5231405    -0.2357201    -0.6039143
H           6.5653910    -0.5217616    -0.7194435
C          -1.5076589    -1.8312330    -2.0970031
H          -2.1939332    -1.9653385    -2.9289292
C          -0.2335851    -2.3947212    -2.1344425
H           0.0862158    -2.9751298    -2.9956469
C           0.6347940    -2.2121176    -1.0581839
H           1.6279348    -2.6488686    -1.0789228
C           0.2480019    -1.4634400     0.0571234
C          -1.0432449    -0.8975115     0.1071110
C          -1.5134179    -0.1019488     1.3053235
H          -0.9050077     0.7976493     1.4690824
H          -1.4682693    -0.6877772     2.2325644
H          -2.5495132     0.2236437     1.1730303
C          -1.9021609    -1.0931940    -0.9808657
H          -2.8982074    -0.6570758    -0.9489513
29
380_C14H14O_21-0-3-10 (90,) energy =    -617.1394887
C           1.2020170    -1.2084481     1.0792917
H           0.9423078    -1.8144173     1.9568716
H           1.2038209    -0.1604320     1.4071958
O           2.5263002    -1.6115636     0.7452359
C           5.2621044     1.0022825    -1.0095792
H           5.9951383     1.6652503    -1.4598536
C           3.9076697     1.3296501    -1.0313982
H           3.5772660     2.2494823    -1.5071120
C           2.9539403     0.4833700    -0.4580663
H           1.9020992     0.7396671    -0.5163231
C           3.3699074    -0.7043880     0.1542924
C           4.7296976    -1.0430470     0.1747127
H           5.0270475    -1.9701211     0.6551271
C           5.6656738    -0.1930451    -0.4060267
H           6.7181625    -0.4634166    -0.3817880
C          -1.7117050    -1.9150254    -2.0328611
H          -2.4527832    -2.0931332    -2.8075670
C          -0.4116157    -2.3956432    -2.1746317
H          -0.1260313    -2.9547269    -3.0616278
C           0.5280477    -2.1580389    -1.1704575
H           1.5414945    -2.5320642    -1.2703581
C           0.1836146    -1.4378546    -0.0238056
C          -1.1324466    -0.9530693     0.1307324
C          -1.5459991    -0.1843809     1.3658269
H          -0.9761316     0.7473763     1.4816551
H          -1.3894470    -0.7664259     2.2836513
H          -2.6060839     0.0827464     1.3227235
C          -2.0616100    -1.2023186    -0.8852220
H          -3.0772187    -0.8293990    -0.7718817
29
380_C14H14O_21-0-3-10 (105,) energy =    -617.1385823
C           1.2071570    -1.0990814     0.8988518
H           0.9904494    -1.6088895     1.8476345
H           1.2471058    -0.0251362     1.1213027
O           2.4963949    -1.5654784     0.5065195
C           5.4479689     1.0423620    -0.8638678
H           6.2335270     1.7040558    -1.2170426
C           4.1074069     1.3786127    -1.0489671
H           3.8425970     2.3022648    -1.5571746
C           3.0887192     0.5332572    -0.6018040
H           2.0505728     0.7887730    -0.7872675
C           3.4216492    -0.6588450     0.0521935
C           4.7656733    -1.0065200     0.2351382
H           4.9972827    -1.9381685     0.7420082
C           5.7698152    -0.1586116    -0.2246453
H           6.8104198    -0.4346341    -0.0751880
C          -1.9012134    -2.0203681    -1.9555398
H          -2.6905959    -2.2507735    -2.6660787
C          -0.5897020    -2.4190136    -2.2039892
H          -0.3429433    -2.9652144    -3.1105220
C           0.4130699    -2.1161343    -1.2812614
H           1.4361667    -2.4280236    -1.4618927
C           0.1188346    -1.4138413    -0.1102262
C          -1.2076330    -1.0091639     0.1507053
C          -1.5613087    -0.2539663     1.4119534
H          -1.0335577     0.7070715     1.4779630
H          -1.2999206    -0.8198370     2.3161225
H          -2.6340261    -0.0431644     1.4541816
C          -2.1997189    -1.3221516    -0.7842652
H          -3.2237693    -1.0116351    -0.5884510
29
380_C14H14O_21-0-3-10 (120,) energy =    -617.1373282
C           1.2096824    -1.0028105     0.7159362
H           1.0592765    -1.4242685     1.7203673
H           1.2502916     0.0867625     0.8377560
O           2.4689093    -1.4963714     0.2585541
C           5.6135741     1.0710952    -0.6944079
H           6.4465515     1.7221028    -0.9435028
C           4.3073570     1.4491242    -1.0069286
H           4.1190511     2.3936826    -1.5107705
C           3.2300023     0.6173226    -0.6949708
H           2.2212276     0.9027032    -0.9772307
C           3.4649941    -0.6018082    -0.0477796
C           4.7729210    -0.9899603     0.2628165
H           4.9290059    -1.9424696     0.7596243
C           5.8397894    -0.1556878    -0.0646429
H           6.8527053    -0.4631896     0.1819922
C          -2.0607765    -2.1603015    -1.8550367
H          -2.8907397    -2.4476519    -2.4951298
C          -0.7531640    -2.4914336    -2.2030129
H          -0.5500840    -3.0413050    -3.1181598
C           0.3021853    -2.1158828    -1.3698344
H           1.3237075    -2.3743965    -1.6266506
C           0.0636836    -1.4090573    -0.1890377
C          -1.2579727    -1.0712838     0.1721663
C          -1.5506569    -0.3079591     1.4439501
H          -1.0626973     0.6760480     1.4548248
H          -1.1978093    -0.8444516     2.3349490