29
380_C14H14O_0-3-10-8 (-165,) energy =    -617.1404479
C           1.5472852    -1.7060913    -0.0959122
H           2.2491557    -2.5223253    -0.3126616
H           1.5589043    -1.5338942     0.9896915
O           1.9714947    -0.5096838    -0.7634007
C           5.4184438     1.5156069     0.4198679
H           6.3086319     2.0650510     0.7118426
C           4.4615879     2.1099599    -0.4103348
H           4.6040164     3.1272640    -0.7657245
C           3.3179398     1.4121584    -0.7824324
H           2.5640894     1.8589205    -1.4234982
C           3.1206079     0.0973901    -0.3344692
C           4.0714841    -0.5037752     0.4990895
H           3.9369897    -1.5185186     0.8563608
C           5.2144331     0.2128737     0.8686977
H           5.9485094    -0.2621281     1.5146351
C          -2.3661298    -2.8269017    -1.5091535
H          -3.3541533    -3.1099216    -1.8627764
C          -1.2476588    -3.5719235    -1.8758411
H          -1.3493396    -4.4414464    -2.5192932
C           0.0102881    -3.1879919    -1.4099738
H           0.8891919    -3.7617596    -1.6956120
C           0.1673854    -2.0735432    -0.5807355
C          -0.9629137    -1.3153735    -0.2061133
C          -0.8393940    -0.1034958     0.6883854
H          -0.1626490     0.6415648     0.2580264
H          -0.4365914    -0.3680997     1.6753279
H          -1.8144296     0.3668612     0.8469886
C          -2.2169617    -1.7109817    -0.6833444
H          -3.0935621    -1.1327568    -0.4002431
29
380_C14H14O_0-3-10-8 (-150,) energy =    -617.1392158
C           1.5605947    -1.7530644    -0.1096997
H           2.2262153    -2.6122359    -0.2654522
H           1.5786761    -1.5053228     0.9606017
O           2.0370171    -0.6217594    -0.8568701
C           5.3317322     1.5472473     0.4984648
H           6.1825330     2.1305205     0.8385395
C           4.3085147     2.1529463    -0.2376040
H           4.3585088     3.2136897    -0.4695429
C           3.2124478     1.4104701    -0.6673099
H           2.4073725     1.8660219    -1.2358854
C           3.1383260     0.0406530    -0.3802770
C           4.1555770    -0.5717826     0.3615195
H           4.1083952    -1.6302517     0.5944744
C           5.2459596     0.1878002     0.7946627
H           6.0335034    -0.2955577     1.3671990
C          -2.3882859    -2.8136023    -1.4724080
H          -3.3850124    -3.0807197    -1.8137720
C          -1.2978153    -3.6228583    -1.7829527
H          -1.4302763    -4.5274535    -2.3700000
C          -0.0280593    -3.2580777    -1.3340501
H           0.8292081    -3.8823000    -1.5764060
C           0.1691458    -2.0992612    -0.5772601
C          -0.9330603    -1.2763406    -0.2598715
C          -0.7662216    -0.0155631     0.5562629
H          -0.0641531     0.6766527     0.0805168
H          -0.3715813    -0.2307347     1.5583288
H          -1.7239011     0.4980396     0.6834103
C          -2.1995893    -1.6535490    -0.7186340
H          -3.0544214    -1.0253865    -0.4785764
29
380_C14H14O_0-3-10-8 (-135,) energy =    -617.1375484
C           1.5445766    -1.7094768    -0.0430597
H           2.2036638    -2.5853826    -0.0994099
H           1.5247319    -1.3727597     1.0021820
O           2.0651916    -0.6463927    -0.8638109
C           5.3626353     1.5118974     0.5119825
H           6.2153899     2.0883552     0.8589789
C           4.2510219     2.1581127    -0.0347702
H           4.2330810     3.2421787    -0.1118114
C           3.1516924     1.4219603    -0.4729126
H           2.2797013     1.9096739    -0.8978857
C           3.1663908     0.0251293    -0.3871212
C           4.2756504    -0.6281336     0.1628737
H           4.2924258    -1.7111527     0.2322390
C           5.3667311     0.1199623     0.6097491
H           6.2264711    -0.3936236     1.0324495
C          -2.3603685    -2.8516140    -1.4678094
H          -3.3458354    -3.1392114    -1.8248943
C          -1.2631031    -3.6817250    -1.6856011
H          -1.3791867    -4.6234118    -2.2149763
C          -0.0081549    -3.2901676    -1.2180949
H           0.8541399    -3.9311482    -1.3881030
C           0.1684323    -2.0836318    -0.5339366
C          -0.9410796    -1.2399015    -0.3114165
C          -0.7963551     0.0716123     0.4247828
H          -0.0685455     0.7248159    -0.0671141
H          -0.4454750    -0.0781982     1.4546141
H          -1.7533282     0.5994305     0.4767382
C          -2.1929656    -1.6441100    -0.7871739
H          -3.0528313    -0.9995832    -0.6192773
29
380_C14H14O_0-3-10-8 (-120,) energy =    -617.1366313
C           1.4322387    -1.4875269     0.1494286
H           2.1487473    -2.3136399     0.2356594
H           1.2907863    -1.0651826     1.1545676
O           1.9617698    -0.4595856    -0.7116827
C           5.5556414     1.3433364     0.4161393
H           6.4889530     1.8237523     0.6959043
C           4.3852598     2.0952479     0.2963399
H           4.4038378     3.1656390     0.4842018
C           3.1842198     1.4793798    -0.0574915
H           2.2654636     2.0499177    -0.1542575
C           3.1541323     0.1046318    -0.3077490
C           4.3255462    -0.6531629    -0.1964818
H           4.3030734    -1.7171060    -0.4129486
C           5.5197201    -0.0306331     0.1680733
H           6.4279216    -0.6223061     0.2490394
C          -2.2446212    -3.0104670    -1.5065883
H          -3.1726077    -3.3938443    -1.9228101
C          -1.0870951    -3.7849683    -1.5360420
H          -1.0980090    -4.7785302    -1.9756307
C           0.0920493    -3.2697763    -0.9967461
H           1.0008509    -3.8671656    -1.0206566
C           0.1332391    -1.9947487    -0.4242333
C          -1.0377140    -1.2070807    -0.3920229
C          -1.0400725     0.1764494     0.2158035
H          -0.2959980     0.8192988    -0.2648828
H          -0.7962209     0.1483993     1.2863334
H          -2.0224149     0.6474341     0.1142019
C          -2.2118498    -1.7351575    -0.9394663
H          -3.1181164    -1.1341053    -0.9193749
29
380_C14H14O_0-3-10-8 (-105,) energy =    -617.1364439
C           1.3910732    -1.4021618     0.2041166
H           2.1189574    -2.2069781     0.3703339
H           1.2090300    -0.9161840     1.1739539
O           1.9442005    -0.4283812    -0.7048105
C           5.5840778     1.2718665     0.4316841
H           6.5315174     1.7225466     0.7136897
C           4.3967126     1.9942739     0.5646436
H           4.4169586     3.0100002     0.9509917
C           3.1774109     1.4179195     0.2043248
H           2.2458668     1.9681753     0.2977529
C           3.1483254     0.1158100    -0.3010724
C           4.3351632    -0.6108566    -0.4411361
H           4.2978001    -1.6147803    -0.8544678
C           5.5490870    -0.0304814    -0.0727937
H           6.4708940    -0.5946341    -0.1884209
C          -2.2108577    -3.0820031    -1.4640209
H          -3.1201028    -3.5049848    -1.8832451
C          -1.0501165    -3.8480820    -1.3841022
H          -1.0399643    -4.8745921    -1.7401081
C           0.1050294    -3.2819913    -0.8437547
H           1.0163520    -3.8728412    -0.7825881
C           0.1185001    -1.9640152    -0.3770176
C          -1.0559694    -1.1847231    -0.4555185
C          -1.0873890     0.2441458     0.0355798
H          -0.3300403     0.8512377    -0.4702133
H          -0.8816220     0.3054598     1.1127955
H          -2.0681960     0.6968190    -0.1384070
C          -2.2054402    -1.7640418    -1.0033934
H          -3.1139856    -1.1696594    -1.0686913
29
380_C14H14O_0-3-10-8 (-90,) energy =    -617.1364573
C           1.3798286    -1.3677650     0.2207988
H           2.0915373    -2.1706857     0.4555148
H           1.1823495    -0.8189085     1.1533927
O           1.9749719    -0.4666683    -0.7356241
C           5.5865405     1.2685481     0.4361322
H           6.5282484     1.7262107     0.7261784
C           4.3765740     1.8868549     0.7592377
H           4.3749799     2.8294326     1.3004175
C           3.1651510     1.3033158     0.3849676
H           2.2171350     1.7791060     0.6189292
C           3.1671413     0.0955555    -0.3182053
C           4.3744196    -0.5274099    -0.6459321
H           4.3519656    -1.4576807    -1.2060990
C           5.5814863     0.0627915    -0.2688435
H           6.5200496    -0.4188146    -0.5304679
C          -2.2113752    -3.0900578    -1.4270324
H          -3.1180232    -3.5234342    -1.8412419
C          -1.0693462    -3.8707186    -1.2629840
H          -1.0713644    -4.9193244    -1.5476070
C           0.0830069    -3.2909006    -0.7312017
H           0.9799374    -3.8932588    -0.6048947
C           0.1117508    -1.9444878    -0.3551698
C          -1.0437229    -1.1502321    -0.5191877
C          -1.0576369     0.3094330    -0.1278150
H          -0.2693085     0.8640806    -0.6463841
H          -0.8879240     0.4396661     0.9497161
H          -2.0209347     0.7701126    -0.3666181
C          -2.1902895    -1.7437705    -1.0577286
H          -3.0840573    -1.1379374    -1.1887518
29
380_C14H14O_0-3-10-8 (-75,) energy =    -617.1366203
C           1.3574064    -1.3573211     0.2664266
H           2.0422366    -2.1586858     0.5746557
H           1.1386501    -0.7493675     1.1559818
O           2.0069610    -0.5350443    -0.7246907
C           5.5867737     1.2761447     0.4273849
H           6.5203162     1.7538330     0.7112292
C           4.3747770     1.7538133     0.9316742
H           4.3625046     2.6067760     1.6052946
C           3.1720626     1.1484462     0.5660938
H           2.2239889     1.5263340     0.9380558
C           3.1842657     0.0542685    -0.3051459
C           4.3933514    -0.4273891    -0.8126519
H           4.3747746    -1.2708481    -1.4962474
C           5.5917742     0.1883507    -0.4482149
H           6.5307708    -0.1841355    -0.8493283
C          -2.2151808    -3.0976258    -1.4013416
H          -3.1170769    -3.5355602    -1.8210882
C          -1.1015183    -3.8933010    -1.1420648
H          -1.1210760    -4.9581888    -1.3570304
C           0.0456978    -3.3075491    -0.6055999
H           0.9212348    -3.9213663    -0.4059003
C           0.0961865    -1.9402060    -0.3182337
C          -1.0306553    -1.1304641    -0.5781449
C          -1.0204132     0.3516867    -0.2828489
H          -0.1983935     0.8525956    -0.8038366
H          -0.8890235     0.5478984     0.7901388
H          -1.9613820     0.8188656    -0.5886270
C          -2.1718301    -1.7305638    -1.1207399
H          -3.0436569    -1.1133581    -1.3256814
29
380_C14H14O_0-3-10-8 (-60,) energy =    -617.1369102
C           1.2945840    -1.2958014     0.3518771
H           1.9546557    -2.0726421     0.7593354
H           1.0172871    -0.6282072     1.1789192
O           2.0077317    -0.5531010    -0.6568287
C           5.6121011     1.2706910     0.3953770
H           6.5535508     1.7498904     0.6486854
C           4.4478670     1.5965409     1.0942869
H           4.4795264     2.3361862     1.8901856
C           3.2337344     0.9894195     0.7707008
H           2.3259921     1.2623995     1.3005338
C           3.1872509     0.0373928    -0.2541149
C           4.3494008    -0.2915224    -0.9577682
H           4.2850455    -1.0263159    -1.7543985
C           5.5561011     0.3292282    -0.6345568
H           6.4558530     0.0720614    -1.1874400
C          -2.1768043    -3.1411143    -1.4140331
H          -3.0533614    -3.6047646    -1.8590800
C          -1.0840309    -3.9186932    -1.0374095
H          -1.0949741    -4.9950991    -1.1850065
C           0.0312139    -3.3000722    -0.4711164
H           0.8908171    -3.8999186    -0.1805027
C           0.0692664    -1.9172270    -0.2691795
C          -1.0362490    -1.1256033    -0.6481475
C          -1.0371977     0.3721415    -0.4446597
H          -0.1607795     0.8355368    -0.9082851
H          -1.0142170     0.6335110     0.6223527
H          -1.9364249     0.8252007    -0.8727941
C          -2.1449723    -1.7588494    -1.2196076
H          -2.9999983    -1.1557966    -1.5167323
29
380_C14H14O_0-3-10-8 (-45,) energy =    -617.1378030
C           1.1611752    -1.0937629     0.4641318
H           1.8156621    -1.7971763     0.9934164
H           0.7791049    -0.3726731     1.2001534
O           1.9235866    -0.4026717    -0.5433791
C           5.7027517     1.1112996     0.3660477
H           6.6900409     1.5109681     0.5792514
C           4.6680070     1.2627600     1.2896315
H           4.8454134     1.7879963     2.2246621
C           3.3943263     0.7561844     1.0222093
H           2.5926977     0.8942731     1.7408072
C           3.1597569     0.0733408    -0.1771259
C           4.1932835    -0.0775638    -1.1088633
H           3.9826584    -0.6025602    -2.0354229
C           5.4566670     0.4429430    -0.8363584
H           6.2540241     0.3200115    -1.5647518
C          -2.0602510    -3.2493881    -1.4197353
H          -2.8737883    -3.7912615    -1.8950354
C          -0.9732349    -3.9381699    -0.8861414
H          -0.9259075    -5.0223402    -0.9397051
C           0.0607455    -3.2204131    -0.2837620
H           0.9157108    -3.7510605     0.1293618
C           0.0221861    -1.8254102    -0.2007196
C          -1.0779929    -1.1233176    -0.7380807
C          -1.1599282     0.3843965    -0.6655037
H          -0.2680315     0.8521993    -1.0938993
H          -1.2388186     0.7339579     0.3730887
H          -2.0379386     0.7550090    -1.2029968
C          -2.1041846    -1.8559397    -1.3440276
H          -2.9544319    -1.3227267    -1.7632672
29
380_C14H14O_0-3-10-8 (-30,) energy =    -617.1392498
C           1.1281335    -1.0310451     0.4773498
H           1.7477079    -1.7092256     1.0773016
H           0.7336011    -0.2547655     1.1483042
O           1.9393299    -0.4201534    -0.5400905
C           5.7120731     1.1111273     0.3580880
H           6.6986124     1.5151344     0.5661356
C           4.7436371     1.0661597     1.3597845
H           4.9709587     1.4410268     2.3545012
C           3.4703820     0.5505465     1.1020451
H           2.7259327     0.5340924     1.8908980
C           3.1702786     0.0588825    -0.1741907
C           4.1384088     0.1065306    -1.1863087
H           3.8793682    -0.2733125    -2.1697693
C           5.3992158     0.6309602    -0.9175666
H           6.1442862     0.6597431    -1.7084378
C          -2.0611877    -3.2510113    -1.3865571
H          -2.8672487    -3.8085245    -1.8564801
C          -1.0055659    -3.9216023    -0.7728843
H          -0.9750763    -5.0075722    -0.7577662
C           0.0185931    -3.1832702    -0.1787229
H           0.8486457    -3.7007799     0.2970731
C           0.0016728    -1.7852838    -0.1835018
C          -1.0663809    -1.1011742    -0.8026452
C          -1.1249777     0.4091825    -0.8283532
H          -0.2157777     0.8355499    -1.2637082
H          -1.2222808     0.8262918     0.1833008
H          -1.9836425     0.7576601    -1.4100728
C          -2.0830528    -1.8550711    -1.3985068
H          -2.9088167    -1.3362785    -1.8800569
29
380_C14H14O_0-3-10-8 (-15,) energy =    -617.1403784
C           1.1465875    -1.0780968     0.4792367
H           1.7185791    -1.7557446     1.1261729
H           0.7816939    -0.2485107     1.1017146
O           2.0037052    -0.5615504    -0.5483624
C           5.6707215     1.2007546     0.3623922
H           6.6310087     1.6629762     0.5717530
C           4.7566154     0.9777916     1.3894264
H           4.9999879     1.2692312     2.4080218
C           3.5164428     0.3841239     1.1321951
H           2.8198117     0.2257544     1.9476964
C           3.1941786     0.0010360    -0.1753670
C           4.1101470     0.2259930    -1.2138681
H           3.8359537    -0.0766862    -2.2197780
C           5.3369130     0.8214756    -0.9425301
H           6.0394839     0.9881831    -1.7549694
C          -2.1134625    -3.2349616    -1.3342302
H          -2.9373555    -3.7772814    -1.7907760
C          -1.1008390    -3.9231731    -0.6696529
H          -1.1222267    -5.0072977    -0.6012785
C          -0.0522608    -3.2052419    -0.0934322
H           0.7449839    -3.7358777     0.4223325
C          -0.0028821    -1.8100552    -0.1668389
C          -1.0269031    -1.1081219    -0.8382284
C          -1.0128467     0.4001120    -0.9385117
H          -0.0779854     0.7613803    -1.3783744
H          -1.1055781     0.8711445     0.0496065
H          -1.8447934     0.7591989    -1.5517204
C          -2.0691521    -1.8418118    -1.4147731
H          -2.8615920    -1.3094482    -1.9358909
29
380_C14H14O_0-3-10-8 (0,) energy =    -617.1408599
C           1.1768774    -1.1556856     0.4909358
H           1.6942716    -1.8402389     1.1760149
H           0.8524010    -0.2809724     1.0727748
O           2.0797107    -0.7298747    -0.5373350
C           5.6020237     1.3134599     0.3579038
H           6.5255481     1.8471079     0.5626160
C           4.7657108     0.9248049     1.4012478
H           5.0347670     1.1547909     2.4290620
C           3.5733146     0.2367762     1.1510134
H           2.9413904    -0.0552954     1.9818154
C           3.2168739    -0.0648503    -0.1689171
C           4.0565953     0.3242981    -1.2238925
H           3.7592552     0.0772161    -2.2384308
C           5.2378236     1.0070052    -0.9582539
H           5.8796952     1.3023859    -1.7842214
C          -2.1663616    -3.2009728    -1.3016445
H          -3.0115463    -3.7142232    -1.7528642
C          -1.2096235    -3.9156356    -0.5843741
H          -1.2965744    -4.9924840    -0.4691649
C          -0.1327164    -3.2342559    -0.0159642
H           0.6210060    -3.7863172     0.5411047
C           0.0007905    -1.8490924    -0.1495979
C          -0.9663975    -1.1204569    -0.8747841
C          -0.8606806     0.3779895    -1.0419739
H           0.0936283     0.6615568    -1.4968867
H          -0.9217896     0.8976923    -0.0761585
H          -1.6702565     0.7594441    -1.6713807
C          -2.0382795    -1.8178112    -1.4420748
H          -2.7874143    -1.2644109    -2.0037316
29
380_C14H14O_0-3-10-8 (15,) energy =    -617.1404981
C           1.1870221    -1.2254109     0.5078611
H           1.6426945    -1.9112221     1.2344216
H           0.9011422    -0.3099849     1.0450978
O           2.1410875    -0.8924011    -0.5097612
C           5.5089344     1.4131354     0.3435108
H           6.3931686     2.0128875     0.5385747
C           4.7725197     0.8787036     1.3981072
H           5.0827998     1.0576510     2.4244535
C           3.6326583     0.1038325     1.1596739
H           3.0807451    -0.3078915     1.9971123
C           3.2216893    -0.1297478    -0.1582695
C           3.9625565     0.4027644    -1.2239780
H           3.6289908     0.2009628    -2.2373210
C           5.0963337     1.1667791    -0.9707029
H           5.6608807     1.5753994    -1.8048378
C          -2.2148486    -3.1637813    -1.2920032
H          -3.0748024    -3.6507387    -1.7444288
C          -1.3162956    -3.8973340    -0.5206550
H          -1.4633062    -4.9623672    -0.3640135
C          -0.2192402    -3.2499901     0.0488414
H           0.4894951    -3.8168096     0.6485597
C          -0.0081383    -1.8806648    -0.1374966
C          -0.9159818    -1.1329632    -0.9181467
C          -0.7264968     0.3491656    -1.1449381
H           0.2453010     0.5608879    -1.6021273
H          -0.7649678     0.9110677    -0.2019683
H          -1.5089849     0.7484277    -1.7971514
C          -2.0094323    -1.7962784    -1.4849596
H          -2.7139268    -1.2283163    -2.0883096
29
380_C14H14O_0-3-10-8 (30,) energy =    -617.1393824
C           1.1875082    -1.2583391     0.5418743
H           1.5799092    -1.9276813     1.3188100
H           0.9315667    -0.3032208     1.0206639
O           2.1949026    -1.0240606    -0.4560344
C           5.4335071     1.4834472     0.3272511
H           6.2847731     2.1335558     0.5072521
C           4.8203720     0.8169968     1.3870063
H           5.1959651     0.9412164     2.3995283
C           3.7263214    -0.0242166     1.1662959
H           3.2694696    -0.5446876     2.0012902
C           3.2303146    -0.1862487    -0.1331283
C           3.8478272     0.4762675    -1.2026831
H           3.4556334     0.3240013    -2.2036441
C           4.9423493     1.3038476    -0.9697266
H           5.4120518     1.8151461    -1.8060442
C          -2.2345847    -3.1315105    -1.2902686
H          -3.0989917    -3.6018051    -1.7517497
C          -1.3914386    -3.8683397    -0.4615969
H          -1.5867746    -4.9195898    -0.2687743
C          -0.2876370    -3.2423359     0.1186017
H           0.3778104    -3.8120924     0.7634501
C          -0.0144453    -1.8910466    -0.1134706
C          -0.8659031    -1.1408579    -0.9529307
C          -0.6068790     0.3216351    -1.2314620
H           0.3868523     0.4743342    -1.6646368
H          -0.6506849     0.9230883    -0.3135193
H          -1.3505868     0.7257587    -1.9247594
C          -1.9674856    -1.7820630    -1.5293242
H          -2.6287221    -1.2112685    -2.1773364
29
380_C14H14O_0-3-10-8 (45,) energy =    -617.1377996
C           1.1514420    -1.1937531     0.5525784
H           1.5021137    -1.8101624     1.3903461
H           0.8939471    -0.2031727     0.9512555
O           2.1994791    -1.0443071    -0.4234153
C           5.4402207     1.4622946     0.3644583
H           6.2922488     2.1102549     0.5489120
C           4.9560778     0.6342503     1.3775896
H           5.4341346     0.6289996     2.3538646
C           3.8643981    -0.2058205     1.1489547
H           3.5073661    -0.8582497     1.9394114
C           3.2367972    -0.2017938    -0.1026564
C           3.7246161     0.6213593    -1.1244134
H           3.2363583     0.5942004    -2.0938866
C           4.8222818     1.4466387    -0.8888685
H           5.1932146     2.0837071    -1.6876186
C          -2.2318746    -3.1578822    -1.2568131
H          -3.0862830    -3.6516231    -1.7124064
C          -1.4226535    -3.8431723    -0.3534689
H          -1.6346952    -4.8771100    -0.0955930
C          -0.3311999    -3.1878536     0.2175606
H           0.3079354    -3.7175605     0.9205720
C          -0.0365379    -1.8579062    -0.0973393
C          -0.8540780    -1.1598586    -1.0122069
C          -0.5741070     0.2785798    -1.3805493
H           0.4334293     0.3940163    -1.7926655
H          -0.6391299     0.9408087    -0.5068302
H          -1.2932630     0.6402878    -2.1215606
C          -1.9436670    -1.8301057    -1.5783074
H          -2.5788116    -1.2994437    -2.2839735
29
380_C14H14O_0-3-10-8 (60,) energy =    -617.1367212
C           1.0606659    -0.9540437     0.4847306
H           1.4219873    -1.4462914     1.3960071
H           0.7514240     0.0647455     0.7580727
O           2.1206661    -0.8688157    -0.4885038
C           5.5346715     1.3268940     0.4904805
H           6.4303078     1.8946462     0.7262410
C           5.1430591     0.2618183     1.3044186
H           5.7380997    -0.0066062     2.1735387
C           3.9969573    -0.4751504     1.0043196
H           3.7092704    -1.3187785     1.6244943
C           3.2270968    -0.1356312    -0.1143616
C           3.6167776     0.9277613    -0.9337786
H           3.0126674     1.1671701    -1.8036480
C           4.7704137     1.6518839    -0.6320030
H           5.0693158     2.4755658    -1.2751170
C          -2.1981057    -3.2667817    -1.1319361
H          -3.0206771    -3.8486108    -1.5396394
C          -1.3863459    -3.7995536    -0.1330494
H          -1.5646654    -4.8011950     0.2483067
C          -0.3358357    -3.0333778     0.3729492
H           0.3050544    -3.4449670     1.1496144
C          -0.0850123    -1.7414813    -0.0995004
C          -0.9057399    -1.1978373    -1.1111886
C          -0.6717021     0.1932856    -1.6528973
H           0.3416039     0.2947472    -2.0541199
H          -0.7846823     0.9564782    -0.8712796
H          -1.3845509     0.4289684    -2.4487812
C          -1.9533199    -1.9786119    -1.6113200
H          -2.5897925    -1.5671480    -2.3914381
29
380_C14H14O_0-3-10-8 (75,) energy =    -617.1364591
C           1.0352998    -0.8313523     0.4189004
H           1.3935960    -1.2384032     1.3732458
H           0.7139356     0.2045470     0.6015990
O           2.1127129    -0.8186992    -0.5400135
C           5.5522219     1.2714699     0.5685468
H           6.4546572     1.8107553     0.8425153
C           5.2620620     0.0415205     1.1642688
H           5.9415583    -0.3811467     1.8998019
C           4.1075383    -0.6574939     0.8115500
H           3.8848233    -1.6251433     1.2520852
C           3.2347051    -0.1190460    -0.1397741
C           3.5201070     1.1100479    -0.7392374
H           2.8343406     1.5051121    -1.4828076
C           4.6812286     1.7998584    -0.3862110
H           4.9038900     2.7530837    -0.8585805
C          -2.1893908    -3.2921955    -1.0384895
H          -3.0036847    -3.9112445    -1.4060407
C          -1.4002688    -3.7257010     0.0245075
H          -1.5885105    -4.6860167     0.4966501
C          -0.3596778    -2.9138485     0.4770722
H           0.2634452    -3.2482102     1.3036772
C          -0.0971834    -1.6731293    -0.1118368
C          -0.8950443    -1.2299910    -1.1888017
C          -0.6465990     0.1025396    -1.8569562
H           0.3750469     0.1641773    -2.2449156
H          -0.7740654     0.9369346    -1.1541709
H          -1.3428307     0.2610409    -2.6859888
C          -1.9322628    -2.0561690    -1.6345813
H          -2.5506995    -1.7224307    -2.4647350
29
380_C14H14O_0-3-10-8 (90,) energy =    -617.1364443
C           1.0213532    -0.7859282     0.4015884
H           1.3481448    -1.1348059     1.3903855
H           0.7144878     0.2651144     0.5075960
O           2.1272730    -0.8588246    -0.5215394
C           5.5384531     1.2718235     0.5959074
H           6.4337640     1.8206841     0.8743902
C           5.3692443    -0.0511550     1.0110270
H           6.1348735    -0.5352939     1.6116262
C           4.2220912    -0.7602414     0.6524316
H           4.0804436    -1.7939395     0.9544281
C           3.2417955    -0.1414064    -0.1282621
C           3.4053305     1.1815535    -0.5474681
H           2.6372513     1.6410847    -1.1628024
C           4.5557101     1.8840705    -0.1850004
H           4.6855983     2.9106710    -0.5175143
C          -2.2107887    -3.2761504    -0.9885395
H          -3.0268955    -3.9023906    -1.3395131
C          -1.4666218    -3.6501763     0.1281229
H          -1.6923021    -4.5708272     0.6592178
C          -0.4224611    -2.8306264     0.5582190
H           0.1657960    -3.1189805     1.4265937
C          -0.1125043    -1.6398556    -0.1059234
C          -0.8647696    -1.2572933    -1.2374781
C          -0.5624001     0.0195438    -1.9872379
H           0.4732574     0.0326875    -2.3414028
H          -0.6953892     0.9035917    -1.3489432
H          -1.2257448     0.1340058    -2.8498118
C          -1.9058458    -2.0907051    -1.6601084
H          -2.4889320    -1.8032357    -2.5321167
29
380_C14H14O_0-3-10-8 (105,) energy =    -617.1365883
C           0.9980073    -0.7617974     0.4139085
H           1.2777537    -1.0646543     1.4319422
H           0.7098605     0.2986481     0.4524793
O           2.1388037    -0.9128239    -0.4553635
C           5.5380532     1.2710544     0.5928627
H           6.4313689     1.8313875     0.8542174
C           5.4750150    -0.1021829     0.8385234
H           6.3197193    -0.6142176     1.2919864
C           4.3285395    -0.8250521     0.5051477
H           4.2613856    -1.8942144     0.6827687
C           3.2451097    -0.1712894    -0.0868082
C           3.3033833     1.2030303    -0.3390893
H           2.4595258     1.6952717    -0.8141142
C           4.4504692     1.9199049     0.0033375
H           4.4970022     2.9868987    -0.1986146
C          -2.2352005    -3.2505575    -0.9750156
H          -3.0514936    -3.8766626    -1.3258003
C          -1.5523888    -3.5746485     0.1951356
H          -1.8265577    -4.4557473     0.7687869
C          -0.5061469    -2.7568297     0.6236144
H           0.0353294    -3.0068361     1.5332907
C          -0.1346269    -1.6165087    -0.0950552
C          -0.8249213    -1.2838897    -1.2807236
C          -0.4574387    -0.0605097    -2.0883748
H           0.5971784    -0.0822398    -2.3804428
H          -0.6141244     0.8631284    -1.5144079
H          -1.0673065     0.0090031    -2.9941453
C          -1.8682391    -2.1156529    -1.7008099
H          -2.4037478    -1.8671802    -2.6143308
29
380_C14H14O_0-3-10-8 (120,) energy =    -617.1368402
C           0.9362989    -0.6726991     0.4153010
H           1.1715347    -0.8942742     1.4646150
H           0.6398664     0.3834996     0.3576554
O           2.1134468    -0.8920064    -0.3874652
C           5.5607940     1.2444442     0.6016313
H           6.4679300     1.7891100     0.8478051
C           5.5442539    -0.1511609     0.6461827
H           6.4401287    -0.6978336     0.9288697
C           4.3788163    -0.8528698     0.3362283
H           4.3437715    -1.9375786     0.3664681
C           3.2260501    -0.1557423    -0.0355858
C           3.2372735     1.2426238    -0.0881634
H           2.3450001     1.7803722    -0.3949755
C           4.4044142     1.9361238     0.2342180
H           4.4110290     3.0221162     0.1885672
C          -2.2242565    -3.2771247    -0.9269134
H          -3.0219291    -3.9326515    -1.2666063
C          -1.5906914    -3.5125733     0.2911849
H          -1.8851535    -4.3529960     0.9137139
C          -0.5670822    -2.6589717     0.7043522
H          -0.0633833    -2.8402378     1.6512519
C          -0.1707101    -1.5698106    -0.0774040
C          -0.8108757    -1.3267338    -1.3117833
C          -0.4151252    -0.1592340    -2.1863290
H           0.6569855    -0.1744772    -2.4058355
H          -0.6311016     0.8010723    -1.6979547