24
141_C12H9NO2_5-6-17-18 (-165,) energy =    -667.8991985
N           0.6995840     0.6915252    -0.2883397
H           1.3849147     1.3256822    -0.6842288
C          -0.5618688     1.2824305    -0.0523981
C          -1.5394843     0.3421918     0.4722021
H          -2.5230939     0.7450268     0.6863507
C           1.0211888    -0.6279055    -0.0879706
C           2.4017466    -1.1285782    -0.4186009
C          -1.2334142    -0.9741469     0.6720906
H          -1.9911450    -1.6507468     1.0595024
C           5.9660526     1.2073944     0.1396884
H           6.8813406     1.7760217     0.2795832
C           4.7950817     1.5998015     0.7889073
H           4.7979834     2.4653582     1.4450870
C           0.0629045    -1.4865178     0.3809704
H           0.3146672    -2.5298013     0.5199469
C           3.6161214     0.8766214     0.6054295
H           2.7237290     1.1749548     1.1457858
C           3.6000612    -0.2501070    -0.2351233
C           4.7941996    -0.6551592    -0.8567636
H           4.7764894    -1.5460950    -1.4756119
C           5.9642954     0.0747352    -0.6810993
H           6.8783102    -0.2397719    -1.1769075
O           2.5235495    -2.2827704    -0.8077517
O          -0.7373742     2.4723371    -0.2903486
24
141_C12H9NO2_5-6-17-18 (-150,) energy =    -667.8997125
N           0.7761862     0.6697981    -0.2009597
H           1.5163612     1.2874460    -0.5162995
C          -0.4833217     1.2945630    -0.0742732
C          -1.5334619     0.3768069     0.3403556
H          -2.5215426     0.8058276     0.4642038
C           1.0399420    -0.6607048     0.0104598
C           2.4295343    -1.1972079    -0.1970570
C          -1.2851705    -0.9498919     0.5518093
H          -2.0952615    -1.6080372     0.8561119
C           5.9331398     1.2796760     0.0327370
H           6.8306668     1.8898405     0.0847266
C           4.8326498     1.5891660     0.8331734
H           4.8747542     2.4310139     1.5182180
C           0.0186232    -1.4953805     0.3805756
H           0.2303215    -2.5456809     0.5328777
C           3.6737563     0.8156853     0.7586052
H           2.8320781     1.0518691     1.4028435
C           3.6145140    -0.2857061    -0.1119031
C           4.7373537    -0.6047045    -0.8933562
H           4.6885502    -1.4731603    -1.5422508
C           5.8839954     0.1803832    -0.8303352
H           6.7428341    -0.0650957    -1.4486211
O           2.5723737    -2.3856716    -0.4512822
O          -0.6033058     2.4924559    -0.3067738
24
141_C12H9NO2_5-6-17-18 (-135,) energy =    -667.8989302
N           0.8413563     0.6464850    -0.1302587
H           1.6226290     1.2511639    -0.3609428
C          -0.4113405     1.2951414    -0.1162785
C          -1.5141565     0.3951735     0.1879813
H          -2.5011187     0.8431646     0.2190272
C           1.0575864    -0.6900240     0.0954932
C           2.4499185    -1.2505538     0.0187185
C          -1.3132355    -0.9371633     0.4139052
H          -2.1610284    -1.5809270     0.6348285
C           5.8892316     1.3248801    -0.0609625
H           6.7660282     1.9657891    -0.0907095
C           4.8814141     1.5657587     0.8743281
H           4.9756547     2.3859944     1.5801196
C          -0.0094020    -1.5060916     0.3663095
H           0.1695018    -2.5599224     0.5354815
C           3.7467448     0.7540764     0.9036559
H           2.9698037     0.9410655     1.6401067
C           3.6279078    -0.3231458     0.0107253
C           4.6525364    -0.5676287    -0.9165260
H           4.5576652    -1.4115292    -1.5927133
C           5.7722633     0.2587393    -0.9575528
H           6.5565882     0.0708360    -1.6853319
O           2.6049383    -2.4581513    -0.0959373
O          -0.4875707     2.4970257    -0.3464881
24
141_C12H9NO2_5-6-17-18 (-120,) energy =    -667.8971048
N           0.8906431     0.6120933    -0.0664582
H           1.6970427     1.2088705    -0.2196333
C          -0.3518772     1.2724648    -0.1571538
C          -1.4855102     0.3816662     0.0473910
H          -2.4672616     0.8384761    -0.0099468
C           1.0730682    -0.7254173     0.1802568
C           2.4629843    -1.2919661     0.2274546
C          -1.3178446    -0.9517740     0.2933298
H          -2.1876068    -1.5874582     0.4395764
C           5.8380432     1.3479084    -0.1348502
H           6.6930225     2.0104143    -0.2365525
C           4.9465884     1.5200714     0.9255281
H           5.1081630     2.3097510     1.6537073
C          -0.0199601    -1.5315775     0.3636824
H           0.1357463    -2.5854052     0.5547276
C           3.8386290     0.6805333     1.0495705
H           3.1451678     0.8187215     1.8753802
C           3.6370023    -0.3586880     0.1285304
C           4.5371866    -0.5276984    -0.9331310
H           4.3770032    -1.3353082    -1.6411838
C           5.6300860     0.3265571    -1.0654867
H           6.3210621     0.1947270    -1.8933479
O           2.6247222    -2.5023764     0.2620029
O          -0.3985097     2.4756707    -0.3880640
24
141_C12H9NO2_5-6-17-18 (-105,) energy =    -667.8950258
N           0.9180864     0.5922240    -0.0767584
H           1.7350713     1.1830361    -0.1947376
C          -0.3150834     1.2484040    -0.2648856
C          -1.4605141     0.3643912    -0.0954000
H          -2.4361081     0.8180429    -0.2304919
C           1.0817142    -0.7338497     0.2346772
C           2.4673279    -1.2862061     0.3916093
C          -1.3111866    -0.9578655     0.2144588
H          -2.1895915    -1.5873639     0.3330992
C           5.8068827     1.3708326    -0.1787439
H           6.6512815     2.0378109    -0.3280984
C           5.0512549     1.4532842     0.9919892
H           5.3068479     2.1807220     1.7572129
C          -0.0208612    -1.5332787     0.3873336
H           0.1220210    -2.5776646     0.6328830
C           3.9592285     0.6044967     1.1812086
H           3.3686907     0.6736135     2.0914227
C           3.6364626    -0.3512485     0.2077293
C           4.3930872    -0.4260039    -0.9693270
H           4.1391070    -1.1639086    -1.7251048
C           5.4744256     0.4337385    -1.1595992
H           6.0577541     0.3713045    -2.0739434
O           2.6350143    -2.4772570     0.5968520
O          -0.3475605     2.4421575    -0.5418107
24
141_C12H9NO2_5-6-17-18 (-90,) energy =    -667.8940699
N           0.9096648     0.5574873    -0.1839622
H           1.7262204     1.1414322    -0.3355621
C          -0.3225790     1.1813092    -0.4642335
C          -1.4656540     0.3078919    -0.2326689
H          -2.4406592     0.7383071    -0.4325300
C           1.0738975    -0.7299931     0.2601100
C           2.4602912    -1.2401744     0.5112120
C          -1.3155305    -0.9760937     0.2096321
H          -2.1927085    -1.5977887     0.3707835
C           5.8271459     1.3608664    -0.1654673
H           6.6840112     2.0076080    -0.3318019
C           5.2227059     1.3121460     1.0921603
H           5.6086133     1.9182705     1.9069325
C          -0.0258284    -1.5212463     0.4657681
H           0.1183968    -2.5351464     0.8162668
C           4.1212510     0.4834197     1.3088651
H           3.6552776     0.4405345     2.2897882
C           3.6202962    -0.3033227     0.2634471
C           4.2273131    -0.2511926    -0.9982913
H           3.8438975    -0.8640432    -1.8099021
C           5.3293021     0.5785974    -1.2091539
H           5.7983138     0.6121929    -2.1884826
O           2.6389023    -2.3786299     0.9095309
O          -0.3572725     2.3413592    -0.8587006
24
141_C12H9NO2_5-6-17-18 (-75,) energy =    -667.8953026
N           0.8823170     0.5444413    -0.2791069
H           1.6909408     1.1344631    -0.4483138
C          -0.3519397     1.1158945    -0.6489251
C          -1.4856968     0.2420079    -0.3782200
H          -2.4617940     0.6330189    -0.6431277
C           1.0564388    -0.6963680     0.2800069
C           2.4411287    -1.1524467     0.6284716
C          -1.3257857    -0.9956774     0.1779776
H          -2.1959193    -1.6197404     0.3659696
C           5.8747723     1.3162982    -0.1677191
H           6.7556270     1.9223530    -0.3601664
C           5.4218345     1.1381077     1.1417475
H           5.9509323     1.6022084     1.9693125
C          -0.0350490    -1.4897558     0.5183956
H           0.1161419    -2.4664448     0.9597348
C           4.2965790     0.3545852     1.3928348
H           3.9558484     0.1932136     2.4115769
C           3.5987812    -0.2332053     0.3288382
C           4.0621626    -0.0613728    -0.9831638
H           3.5397767    -0.5356409    -1.8103761
C           5.1991128     0.7106921    -1.2280662
H           5.5563591     0.8356884    -2.2462894
O           2.6147733    -2.2145900     1.2034060
O          -0.3945217     2.2374645    -1.1418685
24
141_C12H9NO2_5-6-17-18 (-60,) energy =    -667.8975450
N           0.8538491     0.5630799    -0.2863160
H           1.6426727     1.1871142    -0.4213499
C          -0.3789993     1.0701498    -0.7460555
C          -1.4905607     0.1587767    -0.5126842
H          -2.4637666     0.4980726    -0.8496452
C           1.0445948    -0.6484653     0.3296709
C           2.4201690    -1.0394971     0.7846331
C          -1.3144381    -1.0499036     0.0995140
H          -2.1682588    -1.7036702     0.2593362
C           5.9061917     1.2740480    -0.1973775
H           6.8024204     1.8399446    -0.4358878
C           5.5820930     1.0082192     1.1361369
H           6.2271045     1.3642565     1.9344766
C          -0.0282110    -1.4757946     0.5354524
H           0.1335402    -2.4276163     1.0245893
C           4.4397479     0.2737648     1.4444830
H           4.1957636     0.0350560     2.4752592
C           3.5885530    -0.1672770     0.4205537
C           3.9259188     0.0887335    -0.9173860
H           3.2922559    -0.2820320    -1.7192164
C           5.0841556     0.8052331    -1.2230013
H           5.3437279     0.9931105    -2.2608865
O           2.5699896    -2.0157905     1.5036348
O          -0.4358321     2.1735218    -1.2774776
24
141_C12H9NO2_5-6-17-18 (-45,) energy =    -667.8992433
N           0.8131153     0.6186567    -0.2601245
H           1.5719774     1.2872617    -0.3391670
C          -0.4107260     1.0619957    -0.8043656
C          -1.4858703     0.0933906    -0.6480541
H          -2.4489693     0.3799303    -1.0555685
C           1.0245189    -0.5809017     0.3728192
C           2.3816546    -0.9052772     0.9301856
C          -1.2896754    -1.1032214    -0.0185860
H          -2.1168678    -1.8013686     0.0830555
C           5.9317718     1.2072760    -0.2482988
H           6.8424041     1.7262771    -0.5344406
C           5.7053550     0.8801872     1.0922022
H           6.4401953     1.1427543     1.8479752
C          -0.0174848    -1.4597684     0.5111240
H           0.1558618    -2.3993330     1.0194675
C           4.5436062     0.2074583     1.4590832
H           4.3669529    -0.0778472     2.4913579
C           3.5773826    -0.1141981     0.4928920
C           3.8166042     0.2048361    -0.8538365
H           3.0983060    -0.0782004    -1.6184340
C           4.9932595     0.8591932    -1.2207708
H           5.1763158     1.0931950    -2.2655294
O           2.4895673    -1.7855360     1.7723349
O          -0.4865704     2.1627684    -1.3390217
24
141_C12H9NO2_5-6-17-18 (-30,) energy =    -667.8997046
N           0.7644168     0.6724996    -0.2259247
H           1.4795879     1.3910162    -0.2568830
C          -0.4521710     1.0424184    -0.8396462
C          -1.4729493     0.0102404    -0.7441932
H          -2.4257630     0.2361533    -1.2097943
C           1.0107900    -0.5104092     0.4256533
C           2.3493073    -0.7554626     1.0669736
C          -1.2419142    -1.1701170    -0.0962233
H          -2.0299165    -1.9170024    -0.0394126
C           5.9651261     1.1315581    -0.2865242
H           6.8897807     1.5997778    -0.6126839
C           5.8084355     0.7472977     1.0490413
H           6.6111333     0.9155657     1.7614320
C           0.0149854    -1.4470756     0.5124149
H           0.2100139    -2.3715767     1.0400383
C           4.6268388     0.1433715     1.4657694
H           4.4942520    -0.1780862     2.4936713
C           3.5753494    -0.0637138     0.5571686
C           3.7432643     0.3174143    -0.7850044
H           2.9613939     0.1245184    -1.5131717
C           4.9369440     0.9067541    -1.2028482
H           5.0627956     1.1867196    -2.2447373
O           2.4153122    -1.5273780     2.0144310
O          -0.5621249     2.1384415    -1.3782112
24
141_C12H9NO2_5-6-17-18 (-15,) energy =    -667.8989206
N           0.6944557     0.7258375    -0.1903537
H           1.3565242     1.4939962    -0.1852143
C          -0.5145343     1.0141173    -0.8628071
C          -1.4659000    -0.0844990    -0.8157202
H          -2.4070537     0.0754485    -1.3297710
C           0.9874360    -0.4373334     0.4769552
C           2.3080120    -0.5952851     1.1836570
C          -1.1883342    -1.2453411    -0.1510777
H          -1.9258014    -2.0439344    -0.1300565
C           5.9939612     1.0357405    -0.3124676
H           6.9348963     1.4452276    -0.6697223
C           5.8812397     0.5886215     1.0080211
H           6.7340651     0.6499068     1.6781698
C           0.0516043    -1.4361038     0.5227577
H           0.2773540    -2.3442315     1.0663123
C           4.6771621     0.0647314     1.4647423
H           4.5706517    -0.2929067     2.4834188
C           3.5630506    -0.0143431     0.6107391
C           3.6864396     0.4340506    -0.7159171
H           2.8566054     0.3442058    -1.4089925
C           4.8991231     0.9502913    -1.1732838
H           4.9870320     1.2825026    -2.2036582
O           2.3344034    -1.2483482     2.2188346
O          -0.6703091     2.1021008    -1.4063008
24
141_C12H9NO2_5-6-17-18 (0,) energy =    -667.8970950
N           0.9158677    -0.2830346    -1.1465324
H           1.7181954    -0.2935913    -1.7664610
C          -0.3050410     0.0071946    -1.7991202
C          -1.4514192    -0.0479442    -0.9075860
H          -2.4136805     0.1843493    -1.3498642
C           1.0621501    -0.6208610     0.1755204
C           2.4261591    -0.9381142     0.7349498
C          -1.3189707    -0.3882240     0.4087743
H          -2.1995209    -0.4293205     1.0452007
C           5.9440587     1.4005559    -0.0745009
H           6.8477302     1.9709788    -0.2712512
C           5.9985617     0.2560561     0.7276900
H           6.9443150    -0.0646955     1.1553293
C          -0.0479855    -0.6969275     0.9731148
H           0.0642326    -0.9838503     2.0105405
C           4.8428855    -0.4752746     0.9754698
H           4.8645149    -1.3694132     1.5890696
C           3.6094355    -0.0713805     0.4329161
C           3.5650687     1.0803244    -0.3722289
H           2.6247382     1.4407028    -0.7740136
C           4.7271119     1.8116380    -0.6190692
H           4.6781696     2.7050308    -1.2348992
O           2.5169372    -1.8770521     1.5152826
O          -0.3112308     0.2685057    -2.9969820
24
141_C12H9NO2_5-6-17-18 (15,) energy =    -667.8989204
N           0.9639976    -0.2385201    -1.0831001
H           1.8047874    -0.1988601    -1.6487137
C          -0.2272019    -0.0128605    -1.8091591
C          -1.4219497    -0.1252530    -0.9880516
H          -2.3659935     0.0546083    -1.4900839
C           1.0468094    -0.5627212     0.2481646
C           2.3875692    -0.8140897     0.8864483
C          -1.3532699    -0.4510181     0.3368853
H          -2.2676654    -0.5342293     0.9191248
C           5.9478661     1.3515048    -0.1721152
H           6.8601637     1.8827344    -0.4293880
C           6.0127851     0.1633525     0.5630144
H           6.9752386    -0.2299870     0.8778751
C          -0.1045629    -0.6891255     0.9787618
H          -0.0375790    -0.9636901     2.0233782
C           4.8451753    -0.5157823     0.8921651
H           4.8734518    -1.4355289     1.4667617
C           3.5930705    -0.0222667     0.4853012
C           3.5369891     1.1744281    -0.2502301
H           2.5823294     1.6010740    -0.5392712
C           4.7102537     1.8581046    -0.5702812
H           4.6546963     2.7882920    -1.1283413
O           2.4562385    -1.6550646     1.7735409
O          -0.1766317     0.2461528    -3.0065237
24
141_C12H9NO2_5-6-17-18 (30,) energy =    -667.8997046
N           1.0037801    -0.1862317    -1.0173699
H           1.8715397    -0.0854887    -1.5326774
C          -0.1571320    -0.0338018    -1.8064463
C          -1.3859478    -0.2244832    -1.0513654
H          -2.3104609    -0.1071521    -1.6056103
C           1.0340154    -0.5021789     0.3182128
C           2.3509503    -0.6687761     1.0259584
C          -1.3700128    -0.5419561     0.2773292
H          -2.3077612    -0.6827995     0.8091237
C           5.9525925     1.2938691    -0.2558302
H           6.8739831     1.7797398    -0.5649661
C           5.9990808     0.0682668     0.4162517
H           6.9562101    -0.3986623     0.6307658
C          -0.1455644    -0.6955201     0.9873224
H          -0.1154548    -0.9589436     2.0365236
C           4.8200261    -0.5515474     0.8165350
H           4.8370031    -1.4934371     1.3551031
C           3.5758152     0.0345913     0.5294205
C           3.5373218     1.2702404    -0.1388390
H           2.5886752     1.7626483    -0.3295308
C           4.7230507     1.8973754    -0.5229430
H           4.6843047     2.8582705    -1.0278529
O           2.4017914    -1.3923059     2.0117625
O          -0.0604170     0.2321485    -2.9994767
24
141_C12H9NO2_5-6-17-18 (45,) energy =    -667.8992434
N           1.0298121    -0.1356254    -0.9595863
H           1.9119996     0.0316586    -1.4317626
C          -0.1013077    -0.0664222    -1.8001118
C          -1.3470760    -0.3423250    -1.0998411
H          -2.2507536    -0.2949126    -1.6972129
C           1.0203260    -0.4415840     0.3785264
C           2.3130495    -0.5082891     1.1416807
C          -1.3707507    -0.6494693     0.2312186
H          -2.3196553    -0.8537325     0.7209579
C           5.9564214     1.2327971    -0.3240630
H           6.8880096     1.6686788    -0.6742415
C           5.9582737    -0.0288753     0.2788125
H           6.8907305    -0.5730250     0.3994687
C          -0.1725565    -0.7087950     0.9973330
H          -0.1699624    -0.9579541     2.0504932
C           4.7672529    -0.5848551     0.7361490
H           4.7562755    -1.5508107     1.2311420
C           3.5543719     0.1003737     0.5627564
C           3.5606159     1.3729440    -0.0315919
H           2.6353734     1.9337863    -0.1318550
C           4.7601157     1.9368215    -0.4681389
H           4.7585790     2.9258794    -0.9170926
O           2.3481650    -1.1006870     2.2110333
O           0.0280351     0.2036991    -2.9890621
24
141_C12H9NO2_5-6-17-18 (60,) energy =    -667.8975450
N           0.9867263     0.2946178     0.8653103
H           1.8155655     0.8159966     1.1319269
C          -0.1002214     0.4291118     1.7534847
C          -1.2785442    -0.3118255     1.3254707
H          -2.1448309    -0.2455020     1.9742718
C           0.9890061    -0.4358957    -0.2965893
C           2.2220447    -0.4635922    -1.1515540
C          -1.2896553    -1.0426306     0.1711246
H          -2.1885523    -1.5813805    -0.1181794
C           5.9422959     1.2648258     0.1296604
H           6.8944995     1.6911039     0.4328908
C           5.3398855     1.6777292    -1.0622220
H           5.8243483     2.4223810    -1.6874714
C          -0.1417364    -1.1154577    -0.6671962
H          -0.1293806    -1.6860546    -1.5867874
C           4.1246729     1.1251415    -1.4589023
H           3.6638392     1.4159593    -2.3980874
C           3.4807092     0.1821094    -0.6443618
C           4.0965234    -0.2406998     0.5436805
H           3.6231878    -0.9991726     1.1622282
C           5.3258534     0.2986866     0.9259090
H           5.8009517    -0.0387110     1.8426012
O           2.1745628    -0.9418834    -2.2747404
O           0.0059528     1.1162476     2.7632581
24
141_C12H9NO2_5-6-17-18 (75,) energy =    -667.8953026
N           1.0121793     0.2839056     0.8441410
H           1.8657164     0.7601261     1.1185811
C          -0.0914265     0.5187673     1.6888940
C          -1.2972433    -0.1726479     1.2526435
H          -2.1785802    -0.0259288     1.8670944
C           1.0084302    -0.5013014    -0.2810131
C           2.2690282    -0.6376778    -1.0804496
C          -1.3141426    -0.9574740     0.1343612
H          -2.2332996    -1.4575924    -0.1605289
C           5.9075237     1.3141530     0.1320864
H           6.8372047     1.7971378     0.4195977
C           5.1883114     1.7831190    -0.9699172
H           5.5586471     2.6287452    -1.5425998
C          -0.1455839    -1.1365147    -0.6583644
H          -0.1349727    -1.7530967    -1.5479006
C           3.9991620     1.1606721    -1.3462637
H           3.4499224     1.5065528    -2.2172840
C           3.5063050     0.0800803    -0.6020044
C           4.2359413    -0.3950081     0.4968680
H           3.8716090    -1.2488488     1.0628325
C           5.4347086     0.2213165     0.8599364
H           5.9982417    -0.1547738     1.7090620
O           2.2701579    -1.2604162    -2.1297573
O           0.0216643     1.2417581     2.6723680
24
141_C12H9NO2_5-6-17-18 (90,) energy =    -667.8940700
N           1.0204801     0.3442863     0.7649769
H           1.8782259     0.8241575     1.0194493
C          -0.0972146     0.6688336     1.5597085
C          -1.3044384    -0.0419111     1.1589486
H          -2.1963957     0.1710013     1.7376926
C           1.0281375    -0.5390932    -0.2844396
C           2.3075598    -0.7707895    -1.0292792
C          -1.3097949    -0.9239828     0.1155649
H          -2.2301732    -1.4358763    -0.1542274
C           5.8625898     1.3509741     0.1620259
H           6.7654612     1.8805780     0.4527301
C           5.0120925     1.8968596    -0.8013062
H           5.2519267     2.8502284    -1.2636165
C          -0.1273357    -1.1890402    -0.6312248
H          -0.1068037    -1.8833982    -1.4613290
C           3.8510900     1.2196360    -1.1759912
H           3.1928931     1.6416136    -1.9309044
C           3.5372835    -0.0117992    -0.5861349
C           4.3912617    -0.5566627     0.3818584
H           4.1530658    -1.5141099     0.8377870
C           5.5516228     0.1244750     0.7519938
H           6.2120511    -0.3044916     1.5003253
O           2.3459642    -1.5470911    -1.9687137
O           0.0054212     1.4745663     2.4777190
24
141_C12H9NO2_5-6-17-18 (105,) energy =    -667.8950258
N           1.0080298     0.4267369     0.6920513
H           1.8593782     0.9289662     0.9231597
C          -0.1276650     0.8253813     1.4254923
C          -1.3248874     0.0756192     1.0696356
H          -2.2293274     0.3416709     1.6053792
C           1.0405579    -0.5549820    -0.2657791
C           2.3367025    -0.8699894    -0.9514601
C          -1.3059015    -0.9044677     0.1179126
H          -2.2195684    -1.4430844    -0.1208964
C           5.8462664     1.3522423     0.1810430
H           6.7345847     1.9071631     0.4693691
C           4.8716270     1.9583868    -0.6134198
H           5.0000163     2.9838663    -0.9480146
C          -0.1071809    -1.2376593    -0.5734281
H          -0.0678780    -2.0100449    -1.3306592
C           3.7244721     1.2503954    -0.9758893
H           2.9641891     1.7262365    -1.5903441
C           3.5623986    -0.0802699    -0.5656687
C           4.5395417    -0.6829080     0.2378507
H           4.4106696    -1.7126140     0.5592863
C           5.6770424     0.0334857     0.6088229
H           6.4315746    -0.4386582     1.2316969
O           2.4011639    -1.7886978    -1.7518394
O          -0.0453331     1.7177864     2.2619310
24
141_C12H9NO2_5-6-17-18 (120,) energy =    -667.8971048
N           0.9793711     0.4500218     0.6956960
H           1.8274418     0.9409126     0.9596628
C          -0.1851405     0.8998567     1.3512069
C          -1.3776373     0.1593745     0.9637345
H          -2.3037448     0.4654923     1.4374580
C           1.0433985    -0.5743632    -0.2151724
C           2.3653151    -0.9553705    -0.8171201
C          -1.3277223    -0.8629180     0.0587045
H          -2.2381959    -1.3949620    -0.2057438
C           5.8671076     1.3551728     0.1279973
H           6.7561975     1.9295230     0.3727635
C           4.7870294     1.9770403    -0.5007991
H           4.8349453     3.0325397    -0.7528961
C          -0.1010876    -1.2494152    -0.5508994
H          -0.0382949    -2.0574217    -1.2681690
C           3.6376250     1.2447345    -0.8017623
H           2.7973821     1.7324304    -1.2897123
C           3.5783172    -0.1250457    -0.5032779
C           4.6673559    -0.7445475     0.1261793
H           4.6165095    -1.8054693     0.3522112
C           5.8042754    -0.0043611     0.4443517
H           6.6426850    -0.4881927     0.9374413
O           2.4582702    -1.9754692    -1.4828862
O          -0.1260994     1.8244439     2.1542375
24
141_C12H9NO2_5-6-17-18 (135,) energy =    -667.8989302
N           0.9465031     0.4429155     0.7774189
H           1.7865514     0.8995724     1.1165662
C          -0.2499199     0.9341684     1.3408427
C          -1.4336008     0.2388507     0.8569622
H          -2.3833965     0.5812450     1.2524533
C           1.0475318    -0.5881232    -0.1229892
C           2.3975639    -1.0257562    -0.6175270
C          -1.3473399    -0.7894235    -0.0384306
H          -2.2524248    -1.2886851    -0.3753963
C           5.9000830     1.3752277     0.0426296
H           6.7941580     1.9690918     0.2110781
C           4.7349909     1.9866984    -0.4233667
H           4.7221245     3.0532787    -0.6284329
C          -0.0902305    -1.2252972    -0.5440324
H          -0.0005672    -2.0421539    -1.2482307
C           3.5806735     1.2289862    -0.6248117
H           2.6794102     1.7091919    -0.9964113
C           3.5954139    -0.1545636    -0.3851664
C           4.7751294    -0.7640822     0.0689050
H           4.7800595    -1.8364638     0.2373240
C           5.9179650    -0.0004305     0.2905474
H           6.8246397    -0.4766331     0.6529166
O           2.5145599    -2.1183600    -1.1541857
O          -0.2196148     1.8550892     2.1497425
24
141_C12H9NO2_5-6-17-18 (150,) energy =    -667.8997123
N           0.8930800     0.4252270     0.8648463
H           1.7116292     0.8495581     1.2875907
C          -0.3336723     0.9535378     1.3216904
C          -1.4899615     0.3022617     0.7251791
H          -2.4603432     0.6756216     1.0328595
C           1.0425235    -0.6035856    -0.0315563
C           2.4175629    -1.0865645    -0.4028532
C          -1.3552906    -0.7249095    -0.1655038
H          -2.2416749    -1.1913252    -0.5883278
C           5.9156256     1.3857689    -0.0674994
H           6.8117869     1.9949722     0.0117882
C           4.6911050     1.9841970    -0.3674969
H           4.6328237     3.0558111    -0.5349295
C          -0.0723272    -1.2031293    -0.5554282
H           0.0522230    -2.0230903    -1.2506370
C           3.5359501     1.2067413    -0.4566708
H           2.5927362     1.6797210    -0.7133966
C           3.6027159    -0.1827573    -0.2586031
C           4.8447707    -0.7784679     0.0162167
H           4.8877243    -1.8555862     0.1412658
C           5.9910163     0.0024371     0.1233917
H           6.9452145    -0.4647282     0.3501849
O           2.5516959    -2.2329231    -0.8093827
O          -0.3448771     1.8676887     2.1387643
24
141_C12H9NO2_5-6-17-18 (165,) energy =    -667.8991970
N           0.8430823     0.4113268     0.9595783
H           1.6242081     0.8043370     1.4733595
C          -0.4096045     0.9632660     1.3089423
C          -1.5180328     0.3480719     0.5962277
H          -2.5036010     0.7438090     0.8144768
C           1.0521791    -0.6154034     0.0725230
C           2.4453643    -1.1289061    -0.1747665
C          -1.3240488    -0.6762276    -0.2867535
H          -2.1768969    -1.1178731    -0.7962950
C           5.9320734     1.3840100    -0.1956065
H           6.8267988     2.0003059    -0.2132209
C           4.6742419     1.9761118    -0.3132483
H           4.5864887     3.0517716    -0.4357971
C          -0.0221671    -1.1863133    -0.5561916
H           0.1448697    -2.0068136    -1.2417826
C           3.5230454     1.1883500    -0.2827059
H           2.5549680     1.6613583    -0.4109259
C           3.6231379    -0.2056969    -0.1320580
C           4.8973292    -0.7940036    -0.0491046
H           4.9626229    -1.8739288     0.0320092
C           6.0415434    -0.0045972    -0.0676923
H           7.0207509    -0.4684582     0.0106901
O           2.5879465    -2.3140148    -0.4461971
O          -0.4749361     1.8658795     2.1361949
24
141_C12H9NO2_5-6-17-18 (180,) energy =    -667.8974503
N           0.6249817     0.7382861    -0.3497946
H           1.2418384     1.3936235    -0.8171318
C          -0.6334080     1.2841083    -0.0056007
C          -1.5252802     0.3119691     0.6045980
H          -2.4998051     0.6793986     0.9059924
C           1.0095167    -0.5683748    -0.1806227
C           2.3768501    -1.0201768    -0.6251613
C          -1.1556930    -0.9922975     0.7732921
H          -1.8518074    -1.6948079     1.2249327
C           5.9934434     1.1377340     0.2436993
H           6.9217726     1.6571136     0.4654430
C           4.7834775     1.6326332     0.7309032
H           4.7666482     2.5308853     1.3413538
C           0.1266962    -1.4603058     0.3664183
H           0.4230196    -2.4948666     0.4806679
C           3.5894132     0.9689528     0.4484746
H           2.6671631     1.3474971     0.8748442
C           3.5934063    -0.1933875    -0.3428779
C           4.8238788    -0.7006001    -0.7984314
H           4.8172771    -1.6178281    -1.3774082