20
041_C10H8N2_1-0-9-8 (-165,) energy =    -495.3869699
C           2.4398562    -1.3485316    -0.8078670
C           2.4417644    -2.7273402    -0.5497702
C           1.2846887    -3.4569618    -0.8040970
C           0.1628404    -2.7941785    -1.3024642
C           0.2554747    -1.4183068    -1.5190616
N           1.3572249    -0.7031802    -1.2785408
C           5.8994436     0.9285835     0.0599023
C           4.7067164     1.6095571    -0.1846755
C           3.5601518     0.8786798    -0.4796852
C           3.6456717    -0.5207825    -0.5244646
N           4.7912968    -1.1822109    -0.2789619
C           5.8830376    -0.4659231     0.0007885
H           3.3428772    -3.1914008    -0.1668450
H           1.2573164    -4.5266106    -0.6132022
H          -0.7610650    -3.3235361    -1.5153395
H          -0.5985029    -0.8626919    -1.9041237
H           6.8179476     1.4584573     0.2938117
H           4.6697172     2.6950098    -0.1428705
H           2.6088497     1.3561078    -0.6822531
H           6.7919440    -1.0359493     0.1885152
20
041_C10H8N2_1-0-9-8 (-150,) energy =    -495.3852697
C           2.4588675    -1.3554823    -0.8652049
C           2.4114921    -2.6979631    -0.4617419
C           1.2486958    -3.4259957    -0.6940872
C           0.1691372    -2.7944121    -1.3122110
C           0.3063146    -1.4503073    -1.6621604
N           1.4137211    -0.7357487    -1.4422280
C           5.8984367     0.9284922     0.0481689
C           4.6777820     1.5938126    -0.0693976
C           3.5388211     0.8598862    -0.3858696
C           3.6614007    -0.5233265    -0.5831553
N           4.8317313    -1.1730352    -0.4501574
C           5.9165080    -0.4528848    -0.1503162
H           3.2820786    -3.1408890     0.0079677
H           1.1830336    -4.4680633    -0.3922800
H          -0.7577390    -3.3231959    -1.5133776
H          -0.5153848    -0.9192545    -2.1406810
H           6.8126904     1.4606075     0.2934222
H           4.6135894     2.6671396     0.0892111
H           2.5670049     1.3268352    -0.4967538
H           6.8480893    -1.0100540    -0.0612834
20
041_C10H8N2_1-0-9-8 (-135,) energy =    -495.3824601
C           2.4754026    -1.3625137    -0.9181060
C           2.3719170    -2.6520476    -0.3770394
C           1.2024179    -3.3755318    -0.5904748
C           0.1716701    -2.7881731    -1.3246028
C           0.3601032    -1.4904447    -1.8016555
N           1.4738211    -0.7787698    -1.5994137
C           5.9025327     0.9210701     0.0367742
C           4.6615679     1.5584676     0.0481128
C           3.5272334     0.8257701    -0.2882714
C           3.6752421    -0.5241997    -0.6375178
N           4.8639705    -1.1524506    -0.6198362
C           5.9444579    -0.4320976    -0.3014569
H           3.2063040    -3.0651279     0.1787986
H           1.0932884    -4.3776883    -0.1842423
H          -0.7585741    -3.3146827    -1.5160958
H          -0.4246512    -0.9935000    -2.3702638
H           6.8144902     1.4524653     0.2920964
H           4.5784388     2.6068550     0.3223952
H           2.5404045     1.2749225    -0.3037588
H           6.8926114    -0.9678150    -0.3119934
20
041_C10H8N2_1-0-9-8 (-120,) energy =    -495.3788463
C           2.4839863    -1.3690627    -0.9452299
C           2.3171696    -2.5903722    -0.2780544
C           1.1474322    -3.3147869    -0.4892689
C           0.1791994    -2.7925563    -1.3470878
C           0.4259287    -1.5559322    -1.9438292
N           1.5401565    -0.8424124    -1.7437877
C           5.9082533     0.9213097     0.0137642
C           4.6547097     1.5130103     0.1703890
C           3.5204595     0.7804649    -0.1680349
C           3.6809051    -0.5200389    -0.6655830
N           4.8827576    -1.1094228    -0.7842169
C           5.9634746    -0.3882631    -0.4639050
H           3.1034536    -2.9581131     0.3727040
H           0.9902302    -4.2659037     0.0126149
H          -0.7487060    -3.3218631    -1.5423179
H          -0.3105346    -1.1093473    -2.6103453
H           6.8207729     1.4539642     0.2645060
H           4.5621926     2.5245075     0.5570900
H           2.5242852     1.1993751    -0.0725965
H           6.9225092    -0.8889978    -0.5887448
20
041_C10H8N2_1-0-9-8 (-105,) energy =    -495.3753544
C           2.4776693    -1.3693659    -0.9318523
C           2.2261806    -2.5093387    -0.1575595
C           1.0658145    -3.2402153    -0.3997173
C           0.1924542    -2.8044175    -1.3958878
C           0.5206384    -1.6441403    -2.0970023
N           1.6271924    -0.9252259    -1.8711595
C           5.9222970     0.9267459    -0.0361010
C           4.6748396     1.4534339     0.2977175
C           3.5328137     0.7179169    -0.0089747
C           3.6795753    -0.5183785    -0.6510938
N           4.8780655    -1.0463792    -0.9473850
C           5.9657630    -0.3231131    -0.6537426
H           2.9379874    -2.8152467     0.6026390
H           0.8443664    -4.1307894     0.1825408
H          -0.7241452    -3.3419862    -1.6200262
H          -0.1405632    -1.2649429    -2.8748397
H           6.8403113     1.4638611     0.1832103
H           4.5929439     2.4172676     0.7932214
H           2.5410153     1.0914697     0.2253325
H           6.9209977    -0.7732516    -0.9201096
20
041_C10H8N2_1-0-9-8 (-90,) energy =    -495.3734538
C           2.4568434    -1.3603050    -0.8794973
C           2.1010784    -2.4064905    -0.0198860
C           0.9635767    -3.1564581    -0.3120339
C           0.2204967    -2.8330531    -1.4462741
C           0.6527187    -1.7657454    -2.2342062
N           1.7407736    -1.0338440    -1.9666882
C           5.9252328     0.9483620    -0.0974737
C           4.7132792     1.3852953     0.4349540
C           3.5645748     0.6373000     0.1846899
C           3.6701092    -0.5204793    -0.5953182
N           4.8349931    -0.9546736    -1.1012140
C           5.9286990    -0.2239438    -0.8540847
H           2.7122866    -2.6278095     0.8498287
H           0.6636431    -3.9773533     0.3340203
H          -0.6729956    -3.3887410    -1.7151665
H           0.0963521    -1.4789538    -3.1254141
H           6.8472257     1.4973689     0.0695678
H           4.6624441     2.2908529     1.0338100
H           2.5986792     0.9438838     0.5745226
H           6.8567189    -0.6000853    -1.2823056
20
041_C10H8N2_1-0-9-8 (-75,) energy =    -495.3736510
C           2.4500351    -1.3515186    -0.8693654
C           1.9898301    -2.2909960     0.0613156
C           0.8675429    -3.0554776    -0.2532370
C           0.2460400    -2.8548822    -1.4841219
C           0.7823875    -1.8954697    -2.3449260
N           1.8595458    -1.1563003    -2.0591473
C           5.9244242     0.9649176    -0.1455378
C           4.7612136     1.2955988     0.5467252
C           3.6135069     0.5362367     0.3251692
C           3.6718997    -0.5284138    -0.5823946
N           4.7871103    -0.8499209    -1.2570304
C           5.8801506    -0.1135565    -1.0310794
H           2.5091772    -2.4200134     1.0062845
H           0.4904148    -3.7960965     0.4471229
H          -0.6305046    -3.4259986    -1.7754339
H           0.3243542    -1.7102891    -3.3155517
H           6.8439068     1.5262429    -0.0081827
H           4.7446718     2.1311606     1.2415842
H           2.6834997     0.7636100     0.8377555
H           6.7691427    -0.4021874    -1.5901113
20
041_C10H8N2_1-0-9-8 (-60,) energy =    -495.3750018
C           2.4545075    -1.3488661    -0.8879113
C           1.9008422    -2.1732236     0.1009670
C           0.7821579    -2.9430630    -0.2126141
C           0.2562378    -2.8660564    -1.5004643
C           0.8840678    -2.0201939    -2.4175701
N           1.9598201    -1.2796481    -2.1347823
C           5.9246675     0.9723236    -0.1652651
C           4.8101197     1.1926960     0.6410893
C           3.6650511     0.4292275     0.4209402
C           3.6750764    -0.5318870    -0.5990351
N           4.7424311    -0.7400050    -1.3872996
C           5.8340768    -0.0035304    -1.1604123
H           2.3487088    -2.2134122     1.0895383
H           0.3362910    -3.5964686     0.5326655
H          -0.6132016    -3.4470777    -1.7934465
H           0.5038760    -1.9346701    -3.4346695
H           6.8401616     1.5416575    -0.0346300
H           4.8271937     1.9497035     1.4207487
H           2.7708001     0.5777091     1.0190091
H           6.6836955    -0.2028564    -1.8121491
20
041_C10H8N2_1-0-9-8 (-45,) energy =    -495.3761917
C           2.4657839    -1.3558615    -0.9072008
C           1.8261300    -2.0615561     0.1228510
C           0.7065177    -2.8328897    -0.1813740
C           0.2624610    -2.8773608    -1.5011705
C           0.9710203    -2.1456545    -2.4572416
N           2.0468820    -1.4038259    -2.1831257
C           5.9200981     0.9838312    -0.1710927
C           4.8539048     1.0894740     0.7194549
C           3.7130096     0.3230092     0.4915742
C           3.6770011    -0.5285615    -0.6227385
N           4.6991589    -0.6259541    -1.4896264
C           5.7861222     0.1133929    -1.2554871
H           2.2132084    -2.0191157     1.1364809
H           0.1976518    -3.3955506     0.5968391
H          -0.6045759    -3.4647993    -1.7883215
H           0.6559005    -2.1559225    -3.4998838
H           6.8301472     1.5610308    -0.0371576
H           4.9038193     1.7629294     1.5709956
H           2.8544950     0.3942192     1.1525933
H           6.5971574     0.0040888    -1.9743646
20
041_C10H8N2_1-0-9-8 (-30,) energy =    -495.3763595
C           2.4734578    -1.3661384    -0.9116555
C           1.7440903    -1.9565705     0.1330414
C           0.6263958    -2.7292648    -0.1724761
C           0.2678706    -2.8914570    -1.5087713
C           1.0576539    -2.2690903    -2.4785458
N           2.1304821    -1.5256814    -2.2018573
C           5.9203019     0.9965519    -0.1817908
C           4.9144533     0.9907503     0.7818845
C           3.7742422     0.2235000     0.5561587
C           3.6722424    -0.5189521    -0.6314690
N           4.6409122    -0.5103762    -1.5637373
C           5.7268487     0.2298388    -1.3334269
H           2.0623580    -1.8377340     1.1637763
H           0.0527416    -3.2025175     0.6200430
H          -0.5946484    -3.4848708    -1.7970517
H           0.8118159    -2.3717314    -3.5348863
H           6.8275793     1.5789982    -0.0521549
H           5.0093190     1.5795405     1.6904391
H           2.9630787     0.2239239     1.2771323
H           6.4888528     0.2076308    -2.1116680
20
041_C10H8N2_1-0-9-8 (-15,) energy =    -495.3755490
C           2.3806895    -1.3403511    -0.5978089
C           2.0236534    -1.7024094    -1.9079083
C           0.9027166    -2.5027931    -2.1122442
C           0.1650689    -2.9246872    -1.0088086
C           0.5951439    -2.5131019     0.2547427
N           1.6671887    -1.7491321     0.4663178
C           5.7485750     1.0955574     0.2907135
C           5.6777109     0.5132698    -0.9724655
C           4.5865604    -0.2942878    -1.2822381
C           3.5884003    -0.5016499    -0.3149418
N           3.6590331     0.0620414     0.9040881
C           4.7108207     0.8309596     1.1873304
H           2.5907420    -1.3455283    -2.7606312
H           0.6094958    -2.7859013    -3.1196883
H          -0.7162632    -3.5495805    -1.1181506
H           0.0485425    -2.8187511     1.1463026
H           6.5798048     1.7325318     0.5778774
H           6.4615846     0.6783268    -1.7068880
H           4.5329777    -0.7749549    -2.2529082
H           4.7250355     1.2649426     2.1866220
20
041_C10H8N2_1-0-9-8 (0,) energy =    -495.3749226
C           2.3854156    -1.3470248    -0.6039731
C           2.1100533    -1.8478382    -1.8883235
C           0.9779255    -2.6330150    -2.0888621
C           0.1443209    -2.9027905    -1.0064836
C           0.4970184    -2.3633698     0.2325052
N           1.5773427    -1.6104219     0.4383142
C           5.7646485     1.0750879     0.3062779
C           5.6058435     0.6426130    -1.0078729
C           4.5076117    -0.1507146    -1.3286958
C           3.5877867    -0.4958978    -0.3232304
N           3.7452002    -0.0757754     0.9446335
C           4.8008751     0.6831045     1.2379137
H           2.7622051    -1.6351602    -2.7276790
H           0.7539609    -3.0261258    -3.0770108
H          -0.7496593    -3.5098289    -1.1134077
H          -0.1248696    -2.5477842     1.1080014
H           6.6048233     1.6951013     0.6043013
H           6.3243967     0.9165802    -1.7758226
H           4.3795008    -0.4897112    -2.3503334
H           4.8833799     0.9975355     2.2779028
20
041_C10H8N2_1-0-9-8 (15,) energy =    -495.3755490
C           2.3878007    -1.3513115    -0.5950535
C           2.2041287    -1.9804042    -1.8382065
C           1.0644838    -2.7519664    -2.0497912
C           0.1347333    -2.8779500    -1.0205291
C           0.4034772    -2.2178927     0.1807330
N           1.4885612    -1.4740087     0.3973493
C           5.7789488     1.0487904     0.3024372
C           5.5159753     0.7623897    -1.0349191
C           4.4060351    -0.0162319    -1.3519364
C           3.5812417    -0.4906293    -0.3176991
N           3.8375324    -0.2128908     0.9730167
C           4.9024824     0.5357597     1.2613288
H           2.9483459    -1.8963373    -2.6225297
H           0.9110824    -3.2504266    -3.0032473
H          -0.7687143    -3.4687797    -1.1384101
H          -0.2955923    -2.2887104     1.0134155
H           6.6323221     1.6516589     0.5981507
H           6.1600999     1.1426888    -1.8233061
H           4.1752774    -0.2240084    -2.3910188
H           5.0691187     0.7349781     2.3194739
20
041_C10H8N2_1-0-9-8 (30,) energy =    -495.3763595
C           2.3827843    -1.3442689    -0.5895929
C           2.2819833    -2.0863194    -1.7775234
C           1.1417839    -2.8535848    -2.0031044
C           0.1357723    -2.8595888    -1.0395507
C           0.3281978    -2.0931342     0.1124389
N           1.4140847    -1.3528758     0.3427449
C           5.7880193     1.0284596     0.2880697
C           5.4297111     0.8664655    -1.0482716
C           4.3119323     0.0938038    -1.3536749
C           3.5816820    -0.4971094    -0.3098098
N           3.9246641    -0.3376112     0.9803227
C           4.9975337     0.4057563     1.2570442
H           3.0933611    -2.0864285    -2.4982846
H           1.0470461    -3.4423605    -2.9116756
H          -0.7712936    -3.4422567    -1.1696039
H          -0.4340746    -2.0712035     0.8904405
H           6.6504940     1.6217120     0.5768440
H           6.0034686     1.3397414    -1.8407089
H           3.9939696    -0.0247372    -2.3845177
H           5.2430078     0.5081400     2.3134828
20
041_C10H8N2_1-0-9-8 (45,) energy =    -495.3761917
C           2.3789100    -1.3349070    -0.5986307
C           2.3430257    -2.1862393    -1.7131323
C           1.2019093    -2.9523861    -1.9409745
C           0.1355972    -2.8467594    -1.0505542
C           0.2696579    -1.9764765     0.0339540
N           1.3567408    -1.2373546     0.2682128
C           5.7929560     1.0145013     0.2805170
C           5.3490661     0.9700340    -1.0393268
C           4.2296120     0.1983980    -1.3433666
C           3.5899414    -0.5075617    -0.3135102
N           4.0088166    -0.4594347     0.9624261
C           5.0845218     0.2826282     1.2365536
H           3.2015687    -2.2575224    -2.3741156
H           1.1519003    -3.6257299    -2.7925933
H          -0.7745279    -3.4238043    -1.1846582
H          -0.5413882    -1.8671202     0.7528101
H           6.6598456     1.6021115     0.5677524
H           5.8578145     1.5328127    -1.8175365
H           3.8425746     0.1558823    -2.3570030
H           5.3996230     0.2929486     2.2792017
20
041_C10H8N2_1-0-9-8 (60,) energy =    -495.3750018
C           2.3795506    -1.3307861    -0.6216688
C           2.3915038    -2.2915778    -1.6418293
C           1.2463715    -3.0550375    -1.8614687
C           0.1310506    -2.8358585    -1.0558013
C           0.2204587    -1.8601222    -0.0604715
N           1.3119078    -1.1233628     0.1665624
C           5.7994765     1.0025212     0.2794062
C           5.2746151     1.0806528    -1.0087724
C           4.1557199     0.3108709    -1.3218878
C           3.6004949    -0.5138974    -0.3341261
N           4.0948951    -0.5838115     0.9127100
C           5.1707290     0.1564775     1.1957588
H           3.2860116    -2.4395020    -2.2396981
H           1.2298371    -3.8120038    -2.6411523
H          -0.7839285    -3.4058950    -1.1870296
H          -0.6294933    -1.6612860     0.5909862
H           6.6690230     1.5829383     0.5732446
H           5.7209312     1.7341211    -1.7537566
H           3.7081950     0.3515963    -2.3105642
H           5.5504752     0.0704908     2.2129819
20
041_C10H8N2_1-0-9-8 (75,) energy =    -495.3736510
C           2.3852736    -1.3358973    -0.6393354
C           2.4427220    -2.4002396    -1.5473271
C           1.2941981    -3.1583928    -1.7686881
C           0.1312271    -2.8271883    -1.0763123
C           0.1757891    -1.7491506    -0.1903249
N           1.2699435    -1.0140807     0.0350841
C           5.8092556     0.9926976     0.2635335
C           5.1874709     1.1927801    -0.9673150
C           4.0657374     0.4271526    -1.2811258
C           3.6065504    -0.5126507    -0.3502771
N           4.1968367    -0.7075391     0.8395867
C           5.2733711     0.0328068     1.1241657
H           3.3724701    -2.6282510    -2.0600769
H           1.3099366    -3.9937762    -2.4637656
H          -0.7886009    -3.3878643    -1.2138842
H          -0.7129602    -1.4600758     0.3689256
H           6.6854156     1.5644729     0.5547677
H           5.5638057     1.9335747    -1.6679301
H           3.5460612     0.5555485    -2.2260110
H           5.7317413    -0.1519522     2.0946770
20
041_C10H8N2_1-0-9-8 (90,) energy =    -495.3734538
C           2.3855126    -1.3430989    -0.6261340
C           2.4914399    -2.5006508    -1.4064270
C           1.3420777    -3.2477572    -1.6564478
C           0.1298513    -2.8111877    -1.1243074
C           0.1271812    -1.6389782    -0.3675271
N           1.2208959    -0.9084422    -0.1201122
C           5.8343313     0.9702875     0.2254027
C           5.0916472     1.2940274    -0.9089846
C           3.9545491     0.5432324    -1.2004732
C           3.5985883    -0.5032279    -0.3412784
N           4.3149672    -0.8292369     0.7458872
C           5.4028733    -0.0971084     1.0136178
H           3.4572623    -2.8075077    -1.7962817
H           1.3926761    -4.1532054    -2.2554624
H          -0.7922546    -3.3599734    -1.2915667
H          -0.8006766    -1.2625778     0.0607802
H           6.7276221     1.5262176     0.4943927
H           5.3913006     2.1150423    -1.5550414
H           3.3432577     0.7642808    -2.0701731
H           5.9594320    -0.3836482     1.9048045
20
041_C10H8N2_1-0-9-8 (105,) energy =    -495.3753544
C           2.3757742    -1.3447874    -0.5699273
C           2.5230951    -2.5809586    -1.2121823
C           1.3808557    -3.3162073    -1.5187263
C           0.1330956    -2.7900994    -1.1850516
C           0.0899860    -1.5402608    -0.5673503
N           1.1773857    -0.8167262    -0.2734726
C           5.8629464     0.9410613     0.1747120
C           4.9899396     1.3774271    -0.8214953
C           3.8296688     0.6463116    -1.0633839
C           3.5777683    -0.4938214    -0.2894812
N           4.4284187    -0.9379188     0.6497329
C           5.5350956    -0.2192312     0.8759631
H           3.5149251    -2.9544122    -1.4466097
H           1.4628601    -4.2799782    -2.0143136
H          -0.7848489    -3.3273434    -1.4044129
H          -0.8652179    -1.0901458    -0.3009085
H           6.7795752     1.4785104     0.3989454
H           5.2114398     2.2680777    -1.4036341
H           3.1178303     0.9523347    -1.8234769
H           6.1963611    -0.5984608     1.6537562
20
041_C10H8N2_1-0-9-8 (120,) energy =    -495.3788463
C           2.3742293    -1.3425882    -0.5553724
C           2.5353197    -2.6429936    -1.0529098
C           1.4013831    -3.3760425    -1.3912896
C           0.1475493    -2.7849208    -1.2346743
C           0.0918139    -1.4753382    -0.7570748
N           1.1721711    -0.7536496    -0.4367240
C           5.8766701     0.9289287     0.1259477
C           4.9087060     1.4517415    -0.7317962
C           3.7386943     0.7278207    -0.9431926
C           3.5713191    -0.4936070    -0.2763293
N           4.5149701    -1.0207084     0.5221591
C           5.6294667    -0.3076948     0.7224801
H           3.5316980    -3.0614134    -1.1483933
H           1.4943472    -4.3875024    -1.7779800
H          -0.7647379    -3.3179938    -1.4853814
H          -0.8674350    -0.9750128    -0.6322713
H           6.8047786     1.4578237     0.3213163
H           5.0662940     2.4029090    -1.2334633
H           2.9525755     1.0960608    -1.5938644
H           6.3657175    -0.7546899     1.3889615
20
041_C10H8N2_1-0-9-8 (135,) energy =    -495.3824601
C           2.3812225    -1.3397967    -0.5835811
C           2.5284619    -2.6898088    -0.9330772
C           1.3936077    -3.4216493    -1.2695704
C           0.1529577    -2.7836587    -1.2581378
C           0.1117861    -1.4305466    -0.9196448
N           1.1927858    -0.7109799    -0.6011891
C           5.8837301     0.9256054     0.1035589
C           4.8526433     1.5123771    -0.6305780
C           3.6836142     0.7880473    -0.8437260
C           3.5809168    -0.5014484    -0.3024756
N           4.5828059    -1.0846306     0.3788494
C           5.6960744    -0.3721840     0.5807892
H           3.5149972    -3.1395899    -0.9176617
H           1.4761212    -4.4700326    -1.5440438
H          -0.7592864    -3.3145095    -1.5135674
H          -0.8360511    -0.8942633    -0.9089919
H           6.8136936     1.4526577     0.2949239
H           4.9611479     2.5145396    -1.0369701
H           2.8489164     1.2005027    -1.3995759
H           6.4811801    -0.8685714     1.1493907
20
041_C10H8N2_1-0-9-8 (150,) energy =    -495.3852697
C           2.3948373    -1.3400371    -0.6377733
C           2.5166302    -2.7233223    -0.8351773
C           1.3775114    -3.4570649    -1.1516300
C           0.1570122    -2.7914863    -1.2691413
C           0.1397471    -1.4101283    -1.0705172
N           1.2246520    -0.6901417    -0.7706590
C           5.8864101     0.9313884     0.0908716
C           4.8066883     1.5627205    -0.5272639
C           3.6440118     0.8345135    -0.7594955
C           3.5973726    -0.5078819    -0.3557327
N           4.6426997    -1.1274401     0.2212610
C           5.7499931    -0.4127232     0.4411294
H           3.4882747    -3.1906247    -0.7244210
H           1.4414773    -4.5304005    -1.3102579
H          -0.7574630    -3.3232623    -1.5143547
H          -0.7916293    -0.8526208    -1.1594686
H           6.8131278     1.4604963     0.2918546
H           4.8721504     2.6047737    -0.8291719
H           2.7732023     1.2770985    -1.2291466
H           6.5719167    -0.9434407     0.9196571
20
041_C10H8N2_1-0-9-8 (165,) energy =    -495.3869699
C           2.4086370    -1.3410016    -0.6969778
C           2.4957043    -2.7403515    -0.7413589
C           1.3499964    -3.4727139    -1.0360660
C           0.1567086    -2.7926981    -1.2806836
C           0.1718115    -1.3981249    -1.2218954
N           1.2626022    -0.6803557    -0.9424448
C           5.8933735     0.9300467     0.0814638
C           4.7720583     1.5937949    -0.4167654
C           3.6141455     0.8656551    -0.6714674
C           3.6145224    -0.5132696    -0.4138234
N           4.6967946    -1.1594163     0.0567051
C           5.7994603    -0.4457640     0.2976516
H           3.4475795    -3.2166570    -0.5387394
H           1.3880601    -4.5581469    -1.0775989
H          -0.7613323    -3.3234701    -1.5143898
H          -0.7377028    -0.8291136    -1.4096941
H           6.8177484     1.4585043     0.2945198
H           4.8004825     2.6634666    -0.6073398
H           2.7135886     1.3308428    -1.0542786
H           6.6528456    -1.0023979     0.6825854
20
041_C10H8N2_1-0-9-8 (180,) energy =    -495.3875456
C           2.4251260    -1.3453341    -0.7521628
C           2.4701537    -2.7433992    -0.6445422
C           1.3181568    -3.4738190    -0.9192398
C           0.1580386    -2.7944332    -1.2919920
C           0.2117366    -1.4017465    -1.3714559
N           1.3084298    -0.6861377    -1.1113439
C           5.8965666     0.9322268     0.0705385
C           4.7360534     1.6109282    -0.3022875
C           3.5851246     0.8787476    -0.5765862
C           3.6326010    -0.5191832    -0.4682852
N           4.7498045    -1.1774997    -0.1090219
C           5.8455943    -0.4605546     0.1507742
H           3.3980163    -3.2194170    -0.3509983
H           1.3253013    -4.5581265    -0.8435716
H          -0.7635303    -3.3235987    -1.5154953
H          -0.6712199    -0.8322263    -1.6586859
H           6.8174568     1.4626578     0.2937783
H           4.7277363     2.6952155    -0.3782754
H           2.6564994     1.3532875    -0.8702566
H           6.7294069    -1.0286632     0.4381693
