20
219_C7H9NO2S_4-5-15-16 (-165,) energy =    -875.4849958
C           1.5437797    -2.7896265     0.1113240
H           0.5837591    -3.1233364    -0.2888908
H           1.5054614    -2.7266509     1.2000061
H           2.3421238    -3.4598408    -0.2145596
S           1.8563920    -1.1419441    -0.5570606
N           3.3924709    -0.7545014     0.0021216
H           3.3599708    -0.1177969     0.7893758
O           1.8838027    -1.2670865    -2.0134440
O           0.9832706    -0.1844669     0.1204906
C           7.1563334    -2.4508431    -0.8733721
H           8.1306124    -2.8797674    -1.0875082
C           6.0664851    -2.7240901    -1.6998060
H           6.1899590    -3.3636270    -2.5697183
C           4.8100696    -2.1734799    -1.4440087
H           3.9851499    -2.3595138    -2.1213205
C           4.6336983    -1.3461629    -0.3252398
C           5.7291527    -1.0643242     0.5055031
H           5.5962319    -0.4191578     1.3712018
C           6.9794127    -1.6105084     0.2274240
H           7.8165035    -1.3789421     0.8804822
20
219_C7H9NO2S_4-5-15-16 (-150,) energy =    -875.4855924
C           1.6646944    -2.7935202     0.2021373
H           0.7081505    -3.2052351    -0.1273169
H           1.6746592    -2.6685817     1.2862799
H           2.4854278    -3.4338473    -0.1275283
S           1.8381213    -1.1717120    -0.5758736
N           3.3765809    -0.6380206    -0.1332854
H           3.3312490    -0.0577338     0.6973629
O           1.8096137    -1.3827936    -2.0219916
O           0.9333603    -0.2334573     0.0870761
C           7.1020243    -2.4967524    -0.8373652
H           8.0667036    -2.9636718    -1.0122663
C           6.0554033    -2.6754465    -1.7426116
H           6.2047162    -3.2793320    -2.6336383
C           4.8143181    -2.0716832    -1.5384569
H           4.0209949    -2.1815142    -2.2683797
C           4.6066126    -1.2928257    -0.3904730
C           5.6567841    -1.1102074     0.5217323
H           5.4995888    -0.5021167     1.4100302
C           6.8964084    -1.7024157     0.2919645
H           7.7005575    -1.5461537     1.0058766
20
219_C7H9NO2S_4-5-15-16 (-135,) energy =    -875.4858846
C           1.7656170    -2.7332451     0.3179870
H           0.8100506    -3.2008851     0.0707015
H           1.8151756    -2.5075583     1.3847313
H           2.5922151    -3.3777424     0.0127750
S           1.8511225    -1.1875902    -0.6162687
N           3.3835542    -0.5459297    -0.2833468
H           3.3373563     0.0451434     0.5410957
O           1.7948937    -1.5384785    -2.0339434
O           0.9232392    -0.2280723    -0.0184224
C           7.0699741    -2.5366541    -0.8214020
H           8.0242858    -3.0365762    -0.9586990
C           6.0935927    -2.5936425    -1.8176363
H           6.2886946    -3.1355320    -2.7390635
C           4.8702619    -1.9421391    -1.6619779
H           4.1260874    -1.9592672    -2.4495404
C           4.6067217    -1.2442928    -0.4744655
C           5.5816571    -1.1921716     0.5320237
H           5.3774088    -0.6506714     1.4532886
C           6.8103894    -1.8243527     0.3505095
H           7.5604794    -1.7671323     1.1345791
20
219_C7H9NO2S_4-5-15-16 (-120,) energy =    -875.4856053
C           1.8490297    -2.6807401     0.4754708
H           0.9089386    -3.2092553     0.3025297
H           1.9033322    -2.3309361     1.5080521
H           2.6953805    -3.3256016     0.2322521
S           1.8576523    -1.2538983    -0.6360984
N           3.3679346    -0.5067002    -0.4147662
H           3.3178665     0.1173931     0.3860267
O           1.8071266    -1.7737455    -2.0009056
O           0.8911624    -0.2744870    -0.1400165
C           7.0375777    -2.5603907    -0.8221056
H           7.9859953    -3.0784865    -0.9308538
C           6.1483304    -2.4880282    -1.8969096
H           6.4056862    -2.9476305    -2.8471808
C           4.9366567    -1.8092066    -1.7751913
H           4.2512668    -1.7299475    -2.6109720
C           4.5970666    -1.2166026    -0.5514075
C           5.4788264    -1.3031075     0.5344212
H           5.2100412    -0.8480492     1.4853700
C           6.7016998    -1.9580889     0.3913039
H           7.3849356    -2.0065963     1.2347757
20
219_C7H9NO2S_4-5-15-16 (-105,) energy =    -875.4844825
C           1.9167539    -2.6039508     0.6405772
H           0.9974374    -3.1844916     0.5361817
H           1.9513807    -2.1255136     1.6212278
H           2.7868812    -3.2431915     0.4817294
S           1.8730866    -1.3303001    -0.6435239
N           3.3533270    -0.4973995    -0.5361671
H           3.2957504     0.1758434     0.2244589
O           1.8494324    -2.0214897    -1.9305922
O           0.8646421    -0.3390382    -0.2689974
C           7.0201219    -2.5780776    -0.8335804
H           7.9645320    -3.1081030    -0.9181607
C           6.2288618    -2.3699352    -1.9658259
H           6.5568518    -2.7377386    -2.9340276
C           5.0235162    -1.6759430    -1.8691492
H           4.4044508    -1.4972124    -2.7409290
C           4.5966178    -1.1996210    -0.6238467
C           5.3750936    -1.4310768     0.5179642
H           5.0338781    -1.0705369     1.4859722
C           6.5934504    -2.1015647     0.4073235
H           7.2011933    -2.2614515     1.2936764
20
219_C7H9NO2S_4-5-15-16 (-90,) energy =    -875.4837049
C           1.6203252    -2.3242307     1.1160682
H           0.7218733    -2.9449899     1.0884931
H           1.4682859    -1.4483265     1.7475376
H           2.4736438    -2.9140910     1.4549154
S           1.9239063    -1.7764401    -0.5718326
N           3.3186443    -0.7883527    -0.3824330
H           3.1317127     0.0466428    -0.9356458
O           2.2242926    -2.9624171    -1.3757637
O           0.8664472    -0.8378256    -0.9594806
C           7.1730799    -2.4260590    -0.9897301
H           8.1662686    -2.8408648    -1.1367304
C           6.5010793    -1.8236892    -2.0554446
H           6.9670187    -1.7724495    -3.0355104
C           5.2221095    -1.2997550    -1.8724168
H           4.6860874    -0.8533361    -2.7057081
C           4.6171345    -1.3562144    -0.6118305
C           5.2967365    -1.9453431     0.4590416
H           4.8352389    -1.9519727     1.4420714
C           6.5664374    -2.4892180     0.2659004
H           7.0883847    -2.9469794     1.1016231
20
219_C7H9NO2S_4-5-15-16 (-75,) energy =    -875.4840234
C           1.4744206    -2.0658839     1.1836180
H           0.5704631    -2.6781001     1.2239239
H           1.2758044    -1.0594600     1.5539522
H           2.2774590    -2.5408142     1.7493838
S           1.9566344    -1.9616255    -0.5486207
N           3.3230081    -0.9169496    -0.4831968
H           3.0981809    -0.1340549    -1.0941285
O           2.3583282    -3.2988907    -0.9829092
O           0.9306057    -1.1906427    -1.2579934
C           7.2546137    -2.3670559    -1.0510205
H           8.2694820    -2.7287149    -1.1888995
C           6.6401650    -1.6038902    -2.0449365
H           7.1726605    -1.3703073    -2.9626855
C           5.3325370    -1.1502535    -1.8751791
H           4.8457423    -0.5757684    -2.6596240
C           4.6384209    -1.4372846    -0.6944083
C           5.2617635    -2.1843203     0.3107161
H           4.7342995    -2.3812319     1.2390460
C           6.5582182    -2.6596199     0.1234658
H           7.0314198    -3.2461536     0.9060494
20
219_C7H9NO2S_4-5-15-16 (-60,) energy =    -875.4844053
C           1.4452804    -1.9238845     1.2388362
H           0.5655840    -2.5560522     1.3806617
H           1.2046284    -0.8790489     1.4393076
H           2.2634280    -2.2643359     1.8755967
S           1.9327420    -2.0845763    -0.4877608
N           3.2743051    -1.0192317    -0.5833403
H           3.0179151    -0.2914374    -1.2463501
O           2.3651417    -3.4637788    -0.7056601
O           0.8941552    -1.4545870    -1.3079626
C           7.2774862    -2.2975380    -1.0324982
H           8.3115883    -2.6107399    -1.1420337
C           6.7007294    -1.4361039    -1.9662469
H           7.2811047    -1.0746095    -2.8106313
C           5.3692258    -1.0447323    -1.8337316
H           4.9167847    -0.3895688    -2.5747245
C           4.6082513    -1.4935869    -0.7474774
C           5.1906185    -2.3450938     0.1986900
H           4.6120265    -2.6902342     1.0490650
C           6.5136410    -2.7530784     0.0440602
H           6.9526409    -3.4222067     0.7788911
20
219_C7H9NO2S_4-5-15-16 (-45,) energy =    -875.4845218
C           1.4836637    -1.7812565     1.3119841
H           0.6221589    -2.3971464     1.5805549
H           1.2530456    -0.7220965     1.4333227
H           2.3512882    -2.0612446     1.9120419
S           1.8360538    -2.1010938    -0.4252986
N           3.1760592    -1.0841689    -0.7141779
H           2.9018127    -0.4144561    -1.4279033
O           2.2201458    -3.5060807    -0.5507463
O           0.7550265    -1.5161154    -1.2222197
C           7.2252392    -2.2575679    -1.0020930
H           8.2714205    -2.5399505    -1.0728656
C           6.6807175    -1.3360298    -1.8970815
H           7.2994568    -0.8945366    -2.6734989
C           5.3355165    -0.9820319    -1.8133613
H           4.9132299    -0.2734803    -2.5225452
C           4.5205373    -1.5339919    -0.8160173
C           5.0670052    -2.4527596     0.0890599
H           4.4477996    -2.9005243     0.8578871
C           6.4086044    -2.8151305    -0.0169830
H           6.8175327    -3.5363139     0.6853525
20
219_C7H9NO2S_4-5-15-16 (-30,) energy =    -875.4845418
C           1.5906244    -1.7343404     1.3571845
H           0.7671167    -2.3359054     1.7490477
H           1.3545722    -0.6711113     1.4158800
H           2.5129343    -1.9581839     1.8966028
S           1.7964261    -2.1847337    -0.3746605
N           3.1195686    -1.2246657    -0.8379336
H           2.8258439    -0.6203401    -1.5995818
O           2.1364360    -3.6062110    -0.4247571
O           0.6734022    -1.6315275    -1.1337034
C           7.2262215    -2.2145181    -0.9334664
H           8.2866122    -2.4471215    -0.9578728
C           6.6921528    -1.2562920    -1.7961795
H           7.3338178    -0.7339950    -2.5005881
C           5.3309239    -0.9628322    -1.7692871
H           4.9226890    -0.2157706    -2.4464674
C           4.4817335    -1.6215658    -0.8682058
C           5.0146292    -2.5824760     0.0013625
H           4.3721851    -3.1255379     0.6838331
C           6.3779078    -2.8734364    -0.0434075
H           6.7758147    -3.6280966     0.6295583
20
219_C7H9NO2S_4-5-15-16 (-15,) energy =    -875.4845542
C           1.7205116    -1.6476666     1.4087410
H           0.9188369    -2.2000167     1.9043874
H           1.5203227    -0.5756252     1.4258392
H           2.6805869    -1.8722403     1.8779208
S           1.7629422    -2.1997154    -0.3055571
N           3.0711509    -1.3305673    -0.9302985
H           2.7601944    -0.7574795    -1.7076643
O           2.0389166    -3.6363466    -0.2965478
O           0.6064174    -1.6443510    -1.0095303
C           7.2094255    -2.1760806    -0.8789364
H           8.2774673    -2.3716140    -0.8674460
C           6.6802220    -1.1808342    -1.7026230
H           7.3347121    -0.5917156    -2.3392846
C           5.3108411    -0.9302056    -1.7179907
H           4.9071472    -0.1473239    -2.3562328
C           4.4444595    -1.6787445    -0.9066659
C           4.9701922    -2.6827561    -0.0820589
H           4.3142981    -3.3011425     0.5182934
C           6.3453223    -2.9204598    -0.0767119
H           6.7381491    -3.7070478     0.5619208
20
219_C7H9NO2S_4-5-15-16 (0,) energy =    -875.4846407
C           1.8283452    -1.5812121     1.4163556
H           1.0469556    -2.0789978     1.9951308
H           1.6571453    -0.5044351     1.3816138
H           2.8111046    -1.8073685     1.8354984
S           1.7450493    -2.2347960    -0.2614744
N           3.0339113    -1.4707455    -1.0262117
H           2.7114072    -0.8599332    -1.7676098
O           1.9746490    -3.6770487    -0.1767168
O           0.5660294    -1.6827679    -0.9288737
C           7.1958163    -2.1468537    -0.8268920
H           8.2694561    -2.3021451    -0.7795479
C           6.6624072    -1.1262428    -1.6163652
H           7.3184716    -0.4768242    -2.1896572
C           5.2863582    -0.9237518    -1.6743027
H           4.8792722    -0.1178780    -2.2809132
C           4.4173724    -1.7526134    -0.9475531
C           4.9465996    -2.7861873    -0.1618042
H           4.2890948    -3.4645370     0.3682243
C           6.3292537    -2.9682810    -0.1067395
H           6.7263855    -3.7757094     0.5025888
20
219_C7H9NO2S_4-5-15-16 (15,) energy =    -875.4849865
C           1.9136654    -1.4919747     1.3658546
H           1.1535699    -1.9346582     2.0135238
H           1.7683834    -0.4136123     1.2841540
H           2.9123074    -1.7255662     1.7411229
S           1.7165804    -2.2312009    -0.2692262
N           2.9903274    -1.5973223    -1.1634624
H           2.6843813    -0.8562119    -1.7826203
O           1.8970973    -3.6736436    -0.1139720
O           0.5263755    -1.6648659    -0.9025143
C           7.1598956    -2.1094664    -0.7581618
H           8.2348601    -2.2278635    -0.6605636
C           6.6289528    -1.0779365    -1.5348793
H           7.2886726    -0.3829650    -2.0473211
C           5.2507145    -0.9212174    -1.6551115
H           4.8449218    -0.1072584    -2.2518827
C           4.3785008    -1.8111788    -1.0090968
C           4.9059216    -2.8560690    -0.2362703
H           4.2444384    -3.5747519     0.2326409
C           6.2897786    -2.9895357    -0.1151251
H           6.6862695    -3.8050970     0.4837035
20
219_C7H9NO2S_4-5-15-16 (30,) energy =    -875.4855451
C           2.0056757    -1.3921345     1.3381574
H           1.2649656    -1.7624676     2.0503728
H           1.8874567    -0.3178748     1.1864207
H           3.0138436    -1.6319816     1.6822504
S           1.7040202    -2.2410720    -0.2280921
N           2.9429186    -1.7225759    -1.2481006
H           2.6428121    -0.9361079    -1.8136130
O           1.8632212    -3.6726697     0.0206780
O           0.4924593    -1.6911111    -0.8347909
C           7.1152210    -2.0773188    -0.7050356
H           8.1901562    -2.1604471    -0.5754252
C           6.5713911    -1.0175019    -1.4329675
H           7.2204384    -0.2658488    -1.8739920
C           5.1922749    -0.9045246    -1.5918156
H           4.7740682    -0.0683967    -2.1481751
C           4.3363006    -1.8695832    -1.0398797
C           4.8779309    -2.9444254    -0.3195657
H           4.2253570    -3.7121831     0.0790451
C           6.2603886    -3.0312116    -0.1520092
H           6.6693443    -3.8681710     0.4076106
20
219_C7H9NO2S_4-5-15-16 (45,) energy =    -875.4858719
C           2.0610926    -1.2684360     1.2695848
H           1.3353793    -1.5583796     2.0326039
H           1.9496965    -0.2121108     1.0184655
H           3.0751193    -1.4876850     1.6095598
S           1.7067152    -2.2635222    -0.1977395
N           2.9141585    -1.8595576    -1.3143437
H           2.6115568    -1.0742360    -1.8823055
O           1.8762184    -3.6646887     0.1819121
O           0.4735293    -1.7713313    -0.8108762
C           7.0822069    -2.0684751    -0.6626260
H           8.1559033    -2.1202045    -0.5079833
C           6.5155134    -0.9654764    -1.3032741
H           7.1442335    -0.1497776    -1.6497609
C           5.1366930    -0.8929892    -1.4920778
H           4.6979228    -0.0239257    -1.9777080
C           4.3102584    -1.9418530    -1.0637776
C           4.8768177    -3.0606614    -0.4359254
H           4.2412592    -3.8828727    -0.1287907
C           6.2554324    -3.1064633    -0.2292534
H           6.6859606    -3.9756052     0.2606817
20
219_C7H9NO2S_4-5-15-16 (60,) energy =    -875.4856930
C           2.1063552    -1.1111929     1.1917343
H           1.4048080    -1.3260673     2.0008264
H           1.9582469    -0.0954741     0.8203604
H           3.1326965    -1.2611074     1.5317893
S           1.7493919    -2.2863981    -0.1361021
N           2.9178634    -1.9940250    -1.3342595
H           2.6039527    -1.2314097    -1.9284474
O           1.9795539    -3.6250756     0.4030156
O           0.4836029    -1.9072978    -0.7633567
C           7.0826616    -2.0634336    -0.6295614
H           8.1557751    -2.0859363    -0.4633262
C           6.4752433    -0.9162135    -1.1421469
H           7.0716220    -0.0386091    -1.3760870
C           5.0960324    -0.8830207    -1.3455065
H           4.6218682     0.0166757    -1.7319976
C           4.3168793    -2.0127812    -1.0617998
C           4.9263513    -3.1743630    -0.5678111
H           4.3188971    -4.0497271    -0.3696948
C           6.3017124    -3.1846209    -0.3397199
H           6.7678078    -4.0859632     0.0487076
20
219_C7H9NO2S_4-5-15-16 (75,) energy =    -875.4846344
C           2.1170421    -0.9434786     1.1119456
H           1.4422817    -1.0794148     1.9600350
H           1.9182687     0.0110410     0.6208046
H           3.1554372    -1.0094861     1.4413338
S           1.7749556    -2.2922798    -0.0443690
N           2.9007930    -2.1263039    -1.3110951
H           2.5726581    -1.4029748    -1.9470699
O           2.0787605    -3.5403961     0.6520147
O           0.4763234    -2.0405224    -0.6688369
C           7.0702876    -2.0786623    -0.6255289
H           8.1447050    -2.0757786    -0.4655873
C           6.4123433    -0.8996976    -0.9795636
H           6.9705033     0.0250569    -1.0969780
C           5.0311723    -0.9006298    -1.1768904
H           4.5159348     0.0190377    -1.4457826
C           4.3048725    -2.0905715    -1.0399311
C           4.9670653    -3.2795480    -0.7098601
H           4.3929178    -4.1952598    -0.6253572
C           6.3428696    -3.2633660    -0.4865695
H           6.8516169    -4.1863216    -0.2227096
20
219_C7H9NO2S_4-5-15-16 (90,) energy =    -875.4836978
C           1.7091619    -0.5017466     0.8118181
H           1.0382638    -0.5574867     1.6721168
H           1.2669327     0.0928623     0.0118632
H           2.6770416    -0.1000141     1.1163621
S           1.9376393    -2.1874077     0.2227147
N           2.9727684    -1.9546482    -1.1307073
H           2.5967252    -2.5572867    -1.8613508
O           2.6141165    -2.9392814     1.2813668
O           0.6787240    -2.6584437    -0.3625346
C           7.1673436    -2.2408368    -0.6469667
H           8.2453098    -2.3053599    -0.5288699
C           6.5162114    -1.0179528    -0.4762908
H           7.0860837    -0.1257905    -0.2319467
C           5.1337149    -0.9315578    -0.6400331
H           4.6233811     0.0228434    -0.5503552
C           4.3930153    -2.0754705    -0.9537003
C           5.0448069    -3.3030395    -1.1164371
H           4.4643872    -4.1927950    -1.3449950
C           6.4295244    -3.3805896    -0.9740552
H           6.9303446    -4.3355534    -1.1062478
20
219_C7H9NO2S_4-5-15-16 (105,) energy =    -875.4839547
C           1.5006092    -0.3935778     0.6158570
H           0.8136446    -0.3818661     1.4652682
H           1.0006199    -0.0491562    -0.2901262
H           2.3804821     0.2136214     0.8341771
S           2.0104700    -2.1050967     0.3820424
N           3.0085857    -2.0000530    -1.0161529
H           2.6056468    -2.6506772    -1.6878411
O           2.8022419    -2.4989017     1.5467718
O           0.8392032    -2.8720204    -0.0543584
C           7.2152258    -2.3139468    -0.7113825
H           8.2966124    -2.3878318    -0.6410219
C           6.5635539    -1.1479252    -0.3046527
H           7.1367731    -0.3086883     0.0793760
C           5.1775126    -1.0439894    -0.4069174
H           4.6730997    -0.1248115    -0.1247432
C           4.4292138    -2.1207651    -0.8935770
C           5.0802692    -3.2950077    -1.2881151
H           4.4968122    -4.1371840    -1.6521022
C           6.4696964    -3.3832194    -1.2105099
H           6.9669596    -4.2958833    -1.5269732
20
219_C7H9NO2S_4-5-15-16 (120,) energy =    -875.4843455
C           1.4105262    -0.3440899     0.4825462
H           0.7408175    -0.2365761     1.3390562
H           0.8703057    -0.1818239    -0.4510240
H           2.2520744     0.3448378     0.5710171
S           2.0261368    -2.0366997     0.5088673
N           3.0054078    -2.0854976    -0.9008637
H           2.5929530    -2.7865273    -1.5122290
O           2.8522884    -2.1955503     1.7042852
O           0.9003686    -2.9287939     0.2159854
C           7.2247606    -2.3077574    -0.7797686
H           8.3094347    -2.3595470    -0.7620384
C           6.5625193    -1.2278843    -0.1922003
H           7.1307992    -0.4334033     0.2834737
C           5.1720004    -1.1480078    -0.2226446
H           4.6659935    -0.2949469     0.2174067
C           4.4270808    -2.1695597    -0.8228362
C           5.0887530    -3.2605140    -1.3989970
H           4.5112680    -4.0617840    -1.8543912
C           6.4817018    -3.3194777    -1.3890187
H           6.9834051    -4.1674685    -1.8469076
20
219_C7H9NO2S_4-5-15-16 (135,) energy =    -875.4845160
C           1.0924645    -2.7212650    -0.1714211
H           0.1515023    -2.6533719    -0.7224340
H           0.9058756    -2.8566749     0.8946750
H           1.7043708    -3.5346678    -0.5652506
S           1.9569939    -1.1597874    -0.4134357
N           3.3827088    -1.3939651     0.5002461
H           3.3852237    -0.6914076     1.2351673
O           2.2726005    -1.0402256    -1.8357860
O           1.2234086    -0.1188704     0.3108710
C           7.2358368    -2.1773002    -1.0478979
H           8.2313617    -2.3857958    -1.4283406
C           6.1295160    -2.8603138    -1.5558845
H           6.2607090    -3.6049787    -2.3361826
C           4.8485979    -2.6084707    -1.0680144
H           4.0010487    -3.1490911    -1.4738235
C           4.6611897    -1.6429083    -0.0711372
C           5.7684643    -0.9465987     0.4307974
H           5.6251184    -0.1907393     1.1997588
C           7.0478695    -1.2221260    -0.0483782
H           7.8964821    -0.6771137     0.3558631
20
219_C7H9NO2S_4-5-15-16 (150,) energy =    -875.4845391
C           1.1943509    -2.7715838    -0.1316546
H           0.2491330    -2.8261731    -0.6767968
H           1.0250539    -2.8438499     0.9434044
H           1.8734549    -3.5557053    -0.4716999
S           1.9215709    -1.1641952    -0.4945743
N           3.3800283    -1.2284204     0.3786892
H           3.3779309    -0.4691906     1.0536218
O           2.1754424    -1.1073149    -1.9336173
O           1.1380958    -0.1367687     0.1941613
C           7.2406565    -2.2517194    -1.0016037
H           8.2389499    -2.5179129    -1.3357829
C           6.1180466    -2.8189044    -1.6051792
H           6.2382659    -3.5305006    -2.4175343
C           4.8305767    -2.4886909    -1.1831546
H           3.9741275    -2.9268659    -1.6812527
C           4.6562295    -1.5634050    -0.1456225
C           5.7825942    -0.9847919     0.4568105
H           5.6527216    -0.2647354     1.2618018
C           7.0631911    -1.3330886     0.0337948
H           7.9237255    -0.8759326     0.5146001
20
219_C7H9NO2S_4-5-15-16 (165,) energy =    -875.4845478
C           1.3218711    -2.8104365    -0.0487525
H           0.3685219    -2.9743094    -0.5564498
H           1.1944428    -2.8419771     1.0340069
H           2.0564624    -3.5489487    -0.3761346
S           1.8937530    -1.1670967    -0.5148806
N           3.3856598    -1.0692403     0.2773581
H           3.3812465    -0.2737504     0.9074732
O           2.0648369    -1.1574514    -1.9676408
O           1.0689066    -0.1698025     0.1684595
C           7.2256506    -2.3254610    -0.9565212
H           8.2190856    -2.6496416    -1.2516010
C           6.0992965    -2.7836122    -1.6391187
H           6.2119173    -3.4658787    -2.4773716
C           4.8165404    -2.3747780    -1.2722956
H           3.9607966    -2.7142421    -1.8428700
C           4.6530399    -1.4871684    -0.2000768
C           5.7847889    -1.0200142     0.4854743
H           5.6624578    -0.3333606     1.3202223
C           7.0580380    -1.4376157     0.1076308
H           7.9217213    -1.0635691     0.6506737
20
219_C7H9NO2S_4-5-15-16 (180,) energy =    -875.4846269
C           1.4332700    -2.8778317     0.0129145
H           0.4860501    -3.1493849    -0.4586085
H           1.3352141    -2.8659788     1.0992897
H           2.2221321    -3.5649139    -0.3006155
S           1.8503615    -1.2162773    -0.5477536
N           3.3631457    -0.9587021     0.1430207
H           3.3360314    -0.1949932     0.8085756
O           1.9473224    -1.2622745    -2.0066786
O           0.9866750    -0.2525685     0.1345380
C           7.1947677    -2.3740064    -0.9221431
H           8.1860563    -2.7360669    -1.1776802
C           6.0880351    -2.7414080    -1.6866068
H           6.2143575    -3.3891967    -2.5499580
C           4.8084271    -2.2794094    -1.3750579
H           3.9695673    -2.5385945    -2.0094609
C           4.6282105    -1.4387506    -0.2675174
C           5.7402659    -1.0645724     0.5029144
H           5.6036699    -0.4147563     1.3644323
C           7.0111239    -1.5265483     0.1722039
H           7.8600297    -1.2230515     0.7789012
