27
055_C13H11NO2_0-2-9-10 (-165,) energy =    -707.2209527
N           1.4986726    -1.0104971    -0.1504770
H           1.8224763    -1.3968295     0.7249026
C           2.1264306     0.1186025    -0.6216704
C           5.6204488     1.5078837     1.4852227
H           6.5006025     1.8790629     2.0033685
C           5.1724702     0.2057133     1.7131165
H           5.7077447    -0.4433945     2.4006726
C           4.0422570    -0.2725765     1.0503182
H           3.7398282    -1.3031385     1.2175234
C           3.3440618     0.5496322     0.1530135
C           3.8148676     1.8485381    -0.0848430
H           3.2782069     2.4639682    -0.7988884
C           4.9401214     2.3271685     0.5810756
H           5.2894411     3.3387945     0.3931611
O           1.7410948     0.7489883    -1.6023552
C          -1.8505815    -3.1478907    -1.5523729
H          -2.7097713    -3.7215780    -1.8871787
C          -1.1746498    -3.5289221    -0.3900367
H          -1.5002943    -4.3962824     0.1817950
C          -0.0742291    -2.7979475     0.0424209
O           0.6431307    -3.1140427     1.1764344
H           0.2428522    -3.8876846     1.6007422
C           0.3727191    -1.6688373    -0.6761874
C          -0.3113028    -1.2950495    -1.8388228
H           0.0309465    -0.4277676    -2.3851601
C          -1.4155031    -2.0354812    -2.2688109
H          -1.9350130    -1.7315966    -3.1728386
27
055_C13H11NO2_0-2-9-10 (-150,) energy =    -707.2209046
N           1.5205228    -0.9992635    -0.1769658
H           1.8184556    -1.3273326     0.7316523
C           2.1979602     0.0707572    -0.7152860
C           5.5817170     1.5006261     1.5294147
H           6.4316041     1.8802545     2.0902325
C           5.2594375     0.1435645     1.5826421
H           5.8633542    -0.5380125     2.1754464
C           4.1654499    -0.3441147     0.8671093
H           3.9439060    -1.4081869     0.8932912
C           3.3888359     0.5226595     0.0848022
C           3.7296148     1.8804959     0.0224995
H           3.1323215     2.5350102    -0.6038614
C           4.8150693     2.3677693     0.7463368
H           5.0659711     3.4239612     0.6990164
O           1.8607019     0.6473446    -1.7447274
C          -1.8512213    -3.1398720    -1.5181559
H          -2.7182429    -3.7115508    -1.8357874
C          -1.2199682    -3.4539246    -0.3115453
H          -1.5880316    -4.2671659     0.3117713
C          -0.1096610    -2.7253597     0.0996831
O           0.5661146    -2.9782735     1.2739008
H           0.1301686    -3.7064903     1.7412951
C           0.3913439    -1.6658058    -0.6857555
C          -0.2478740    -1.3587006    -1.8925092
H           0.1360596    -0.5438309    -2.4897539
C          -1.3621362    -2.0963944    -2.3005485
H          -1.8467228    -1.8450493    -3.2394234
27
055_C13H11NO2_0-2-9-10 (-135,) energy =    -707.2195885
N           1.5219752    -0.9881188    -0.2057414
H           1.8056287    -1.2724582     0.7225621
C           2.2561304     0.0095013    -0.8058390
C           5.5365460     1.4725186     1.5643380
H           6.3580637     1.8563982     2.1632086
C           5.3371596     0.0955440     1.4542490
H           6.0068300    -0.5955998     1.9589064
C           4.2773668    -0.3978569     0.6917976
H           4.1334155    -1.4715678     0.5986219
C           3.4223485     0.4844226     0.0174359
C           3.6325253     1.8651485     0.1257565
H           2.9710670     2.5383701    -0.4105969
C           4.6814270     2.3561679     0.9000342
H           4.8338672     3.4286401     0.9856388
O           1.9722044     0.5232057    -1.8826310
C          -1.8720036    -3.1266200    -1.4947412
H          -2.7464222    -3.6947660    -1.7981604
C          -1.2800281    -3.3776802    -0.2539961
H          -1.6865917    -4.1384846     0.4102606
C          -0.1603175    -2.6533186     0.1393769
O           0.4782265    -2.8466367     1.3448929
H           0.0128880    -3.5339248     1.8447915
C           0.3896138    -1.6614881    -0.6996742
C          -0.2106868    -1.4165720    -1.9400970
H           0.2116177    -0.6531433    -2.5781992
C          -1.3346199    -2.1496314    -2.3295418
H          -1.7884203    -1.9474414    -3.2952796
27
055_C13H11NO2_0-2-9-10 (-120,) energy =    -707.2173344
N           1.5392227    -0.9773416    -0.2283186
H           1.7962933    -1.2108861     0.7219962
C           2.3240523    -0.0505930    -0.8752988
C           5.5126140     1.4633057     1.5888986
H           6.3108348     1.8543726     2.2140518
C           5.4471016     0.0967434     1.3132132
H           6.1961707    -0.5784260     1.7180827
C           4.4164698    -0.4068229     0.5174605
H           4.3645711    -1.4715818     0.3035892
C           3.4617453     0.4601055    -0.0289971
C           3.5302890     1.8304140     0.2517880
H           2.7881554     2.4972523    -0.1771595
C           4.5509525     2.3283072     1.0597732
H           4.5968125     3.3918781     1.2777559
O           2.1016111     0.3830393    -1.9995371
C          -1.8754409    -3.1083140    -1.4750586
H          -2.7568675    -3.6719045    -1.7664698
C          -1.3300797    -3.2870666    -0.2008774
H          -1.7803356    -3.9868137     0.5012356
C          -0.2016331    -2.5683057     0.1779838
O           0.3929384    -2.6924903     1.4143414
H          -0.1077511    -3.3294569     1.9457342
C           0.4038142    -1.6552661    -0.7105433
C          -0.1497353    -1.4824302    -1.9842898
H           0.3163533    -0.7793938    -2.6602868
C          -1.2831052    -2.2089355    -2.3584607
H          -1.7003090    -2.0633899    -3.3505378
27
055_C13H11NO2_0-2-9-10 (-105,) energy =    -707.2150979
N           1.5235609    -0.9753984    -0.2257374
H           1.7359787    -1.1498555     0.7481602
C           2.3629748    -0.1192486    -0.8988116
C           5.5102655     1.4482890     1.5928569
H           6.3018404     1.8491330     2.2202449
C           5.5750584     0.1288834     1.1424340
H           6.4177605    -0.5004095     1.4159152
C           4.5547156    -0.3874832     0.3415766
H           4.6035894    -1.4163987    -0.0057376
C           3.4744877     0.4218156    -0.0299642
C           3.4100712     1.7433973     0.4277456
H           2.5709488     2.3704491     0.1394988
C           4.4254465     2.2531048     1.2364046
H           4.3698124     3.2793597     1.5893331
O           2.2204647     0.2197619    -2.0666399
C          -1.8952239    -3.0995303    -1.4734654
H          -2.7793242    -3.6592687    -1.7641898
C          -1.4176309    -3.1931403    -0.1634960
H          -1.9233771    -3.8220085     0.5673159
C          -0.2860825    -2.4790016     0.2150435
O           0.2435392    -2.5220163     1.4857080
H          -0.2962230    -3.1090191     2.0360607
C           0.3900938    -1.6564082    -0.7098757
C          -0.0956507    -1.5685888    -2.0193728
H           0.4253029    -0.9352506    -2.7236978
C          -1.2328934    -2.2894415    -2.3928439
H          -1.5971968    -2.2106925    -3.4129077
27
055_C13H11NO2_0-2-9-10 (-90,) energy =    -707.2142627
N           1.5034658    -0.9858021    -0.1990176
H           1.6515177    -1.0892168     0.7967542
C           2.4062754    -0.2056576    -0.8809213
C           5.5349136     1.4641667     1.5689853
H           6.3297130     1.8909829     2.1747744
C           5.7182655     0.2282421     0.9455728
H           6.6557365    -0.3084184     1.0641750
C           4.6995993    -0.3210232     0.1661091
H           4.8437559    -1.2790383    -0.3263910
C           3.4891996     0.3641724     0.0086270
C           3.3094204     1.6045171     0.6321487
H           2.3738388     2.1422770     0.5027549
C           4.3303516     2.1519961     1.4102389
H           4.1851273     3.1159138     1.8905867
O           2.3655400     0.0168275    -2.0837355
C          -1.9121925    -3.0907341    -1.4877390
H          -2.7973568    -3.6433169    -1.7887350
C          -1.5184169    -3.0926978    -0.1469054
H          -2.0910005    -3.6428649     0.5979351
C          -0.3859930    -2.3870456     0.2448291
O           0.0632734    -2.3419712     1.5458906
H          -0.5265487    -2.8694126     2.1051008
C           0.3751704    -1.6652452    -0.6978579
C          -0.0264751    -1.6690734    -2.0383893
H           0.5603733    -1.1140225    -2.7568287
C          -1.1655770    -2.3801824    -2.4246402
H          -1.4642046    -2.3731001    -3.4687681
27
055_C13H11NO2_0-2-9-10 (-75,) energy =    -707.2153803
N           1.4974607    -0.9923878    -0.1818239
H           1.5908071    -1.0282469     0.8252386
C           2.4655006    -0.2986995    -0.8686441
C           5.5519095     1.4909973     1.5440405
H           6.3395181     1.9518979     2.1340593
C           5.8304837     0.3663198     0.7631584
H           6.8347998    -0.0482329     0.7437336
C           4.8240182    -0.2215998    -0.0016622
H           5.0418438    -1.0815695    -0.6287149
C           3.5233189     0.2962181     0.0308733
C           3.2510146     1.4324165     0.8022215
H           2.2485245     1.8528892     0.8084711
C           4.2634342     2.0266992     1.5579363
H           4.0459010     2.9101651     2.1521488
O           2.5163242    -0.1955084    -2.0875399
C          -1.9263381    -3.0659890    -1.4984801
H          -2.8154706    -3.6082776    -1.8064305
C          -1.6025136    -2.9827580    -0.1416175
H          -2.2335997    -3.4560220     0.6087672
C          -0.4654160    -2.2898048     0.2590962
O          -0.0829458    -2.1638064     1.5762239
H          -0.7192199    -2.6303080     2.1386629
C           0.3706870    -1.6664480    -0.6904395
C           0.0388426    -1.7555093    -2.0470492
H           0.6841181    -1.2775165    -2.7707781
C          -1.1056248    -2.4529005    -2.4422746
H          -1.3495781    -2.5127042    -3.4988493
27
055_C13H11NO2_0-2-9-10 (-60,) energy =    -707.2176964
N           1.4894991    -1.0129291    -0.1679287
H           1.5395556    -0.9910323     0.8424788
C           2.5125521    -0.4006464    -0.8545182
C           5.5324054     1.5021146     1.5488992
H           6.3042586     1.9920869     2.1363450
C           5.8790311     0.5101714     0.6270077
H           6.9204232     0.2287048     0.4962384
C           4.8927243    -0.1108320    -0.1362928
H           5.1551676    -0.8596425    -0.8775967
C           3.5457050     0.2289200     0.0436258
C           3.2043723     1.2387875     0.9522026
H           2.1642439     1.5347471     1.0649521
C           4.1959590     1.8718131     1.7041823
H           3.9245412     2.6580290     2.4035010
O           2.6295306    -0.4032614    -2.0741424
C          -1.9480375    -3.0515128    -1.5019837
H          -2.8424703    -3.5825688    -1.8141105
C          -1.6830396    -2.8842963    -0.1400993
H          -2.3654748    -3.2805587     0.6099615
C          -0.5395564    -2.2052501     0.2659585
O          -0.2125645    -1.9994194     1.5881810
H          -0.8864765    -2.4100513     2.1503370
C           0.3624255    -1.6802960    -0.6829234
C           0.0891959    -1.8533430    -2.0445850
H           0.7852354    -1.4517344    -2.7676350
C          -1.0623881    -2.5356671    -2.4452531
H          -1.2602196    -2.6612488    -3.5057021
27
055_C13H11NO2_0-2-9-10 (-45,) energy =    -707.2198417
N           1.4826482    -1.0109779    -0.1661598
H           1.4989677    -0.9420102     0.8428809
C           2.5577035    -0.4863113    -0.8468507
C           5.5260881     1.5093865     1.5438176
H           6.2863471     2.0182954     2.1302865
C           5.9010259     0.6500583     0.5069525
H           6.9529016     0.4899537     0.2862791
C           4.9279903     0.0057444    -0.2532367
H           5.2026125    -0.6412822    -1.0803582
C           3.5698134     0.1881303     0.0384301
C           3.1980465     1.0671036     1.0648218
H           2.1460150     1.2544988     1.2655795
C           4.1742363     1.7240588     1.8156123
H           3.8780701     2.4099146     2.6047031
O           2.7253582    -0.5885746    -2.0572885
C          -1.9577039    -3.0406222    -1.5057985
H          -2.8547269    -3.5666175    -1.8190408
C          -1.7400989    -2.7928658    -0.1477770
H          -2.4619738    -3.1208189     0.5983430
C          -0.5935863    -2.1197867     0.2591503
O          -0.3122101    -1.8371997     1.5780263
H          -1.0170092    -2.1961663     2.1376750
C           0.3598616    -1.6820934    -0.6839514
C           0.1334807    -1.9353249    -2.0417547
H           0.8683918    -1.6015457    -2.7606986
C          -1.0217382    -2.6107624    -2.4435838
H          -1.1825282    -2.7993294    -3.5009681
27
055_C13H11NO2_0-2-9-10 (-30,) energy =    -707.2209756
N           1.4662834    -1.0032607    -0.1622622
H           1.4452078    -0.8903088     0.8420761
C           2.5883183    -0.5604363    -0.8244022
C           5.5310375     1.5171014     1.5332308
H           6.2876979     2.0389344     2.1129573
C           5.8965518     0.7904790     0.3968185
H           6.9383556     0.7451329     0.0913203
C           4.9262481     0.1276569    -0.3504400
H           5.1872824    -0.4256195    -1.2465964
C           3.5813459     0.1652446     0.0417372
C           3.2184812     0.9094282     1.1736613
H           2.1743484     0.9969829     1.4635163
C           4.1901802     1.5819355     1.9153809
H           3.8977546     2.1636475     2.7853164
O           2.7988048    -0.7520085    -2.0181448
C          -1.9617953    -3.0437895    -1.5166657
H          -2.8575994    -3.5696764    -1.8335383
C          -1.7932471    -2.7146498    -0.1689709
H          -2.5522227    -2.9788537     0.5655385
C          -0.6484679    -2.0413720     0.2419482
O          -0.4138600    -1.6810858     1.5514128
H          -1.1493927    -1.9879740     2.1024228
C           0.3531921    -1.6852626    -0.6856671
C           0.1753356    -2.0194811    -2.0332001
H           0.9464352    -1.7487208    -2.7404417
C          -0.9786214    -2.6944767    -2.4394429
H          -1.1009556    -2.9466720    -3.4886896
27
055_C13H11NO2_0-2-9-10 (-15,) energy =    -707.2209182
N           1.4453842    -0.9977585    -0.1534230
H           1.3741793    -0.8251376     0.8392019
C           2.6116233    -0.6325855    -0.7836796
C           5.5462275     1.5344731     1.5125899
H           6.3039587     2.0732774     2.0751209
C           5.8694263     0.9389526     0.2910191
H           6.8805979     1.0119018    -0.1000493
C           4.8965549     0.2511272    -0.4295474
H           5.1238556    -0.2129237    -1.3832529
C           3.5884120     0.1413218     0.0625746
C           3.2697664     0.7494619     1.2862783
H           2.2555948     0.7269427     1.6767171
C           4.2434960     1.4424191     2.0052787
H           3.9811019     1.9162286     2.9472175
O           2.8627737    -0.9054804    -1.9542641
C          -1.9635024    -3.0523560    -1.5356507
H          -2.8564742    -3.5784605    -1.8600652
C          -1.8475505    -2.6413523    -0.2050079
H          -2.6444986    -2.8425241     0.5089728
C          -0.7064582    -1.9675383     0.2148614
O          -0.5217139    -1.5304010     1.5091166
H          -1.2899162    -1.7825097     2.0430448
C           0.3441923    -1.6918495    -0.6857738
C           0.2186498    -2.1079867    -2.0163692
H           1.0264244    -1.8991786    -2.7031405
C          -0.9317370    -2.7834615    -2.4318585
H          -1.0128354    -3.0997280    -3.4676576
27
055_C13H11NO2_0-2-9-10 (0,) energy =    -707.2204741
N           1.4310148    -0.9787592    -0.1457566
H           1.2779047    -0.6667919     0.8019272
C           2.6309226    -0.6765862    -0.7424815
C           5.5749934     1.5499942     1.4937996
H           6.3335937     2.1093141     2.0347023
C           5.8109183     1.1298736     0.1831236
H           6.7555120     1.3609278    -0.3017284
C           4.8365087     0.4133993    -0.5064844
H           4.9987887     0.0775019    -1.5247330
C           3.6100470     0.1037808     0.0992165
C           3.3824254     0.5303416     1.4168100
H           2.4497076     0.3172842     1.9326107
C           4.3583980     1.2480601     2.1076503
H           4.1662044     1.5709696     3.1271244
O           2.9129422    -1.0106797    -1.8904143
C          -1.9494465    -3.0710177    -1.5431006
H          -2.8362206    -3.6048307    -1.8718820
C          -1.9015703    -2.5366566    -0.2526435
H          -2.7451602    -2.6505696     0.4261259
C          -0.7684980    -1.8528882     0.1723412
O          -0.6494162    -1.2989570     1.4293516
H          -1.4612877    -1.4685954     1.9301591
C           0.3418082    -1.6878279    -0.6829294
C           0.2837444    -2.2265449    -1.9736961
H           1.1350877    -2.0992476    -2.6267445
C          -0.8583942    -2.9129698    -2.3942140
H          -0.8863400    -3.3246255    -3.3988370
27
055_C13H11NO2_0-2-9-10 (15,) energy =    -707.2209179
N           1.5883030    -1.1074345    -0.3841138
H           1.3671697    -0.6335993     0.4800595
C           2.8193361    -0.8682327    -0.9480446
C           5.6246335     1.5251670     1.2843483
H           6.3437879     2.1338918     1.8258234
C           5.8065168     1.2657664    -0.0761508
H           6.6681758     1.6732976    -0.5978594
C           4.8849839     0.4834502    -0.7672395
H           5.0103666     0.2639969    -1.8220838
C           3.7641163    -0.0452682    -0.1118317
C           3.5930122     0.2127667     1.2567249
H           2.7630086    -0.2193142     1.8098127
C           4.5190448     0.9924883     1.9493827
H           4.3792445     1.1772649     3.0109325
O           3.1499349    -1.2858346    -2.0544410
C          -1.7320594    -3.3211583    -1.7357627
H          -2.6047375    -3.8835599    -2.0544513
C          -1.7615270    -2.6257595    -0.5238849
H          -2.6505423    -2.6439870     0.1043389
C          -0.6468691    -1.9046850    -0.1117580
O          -0.6009351    -1.1968487     1.0703712
H          -1.4536975    -1.2780155     1.5231227
C           0.5205351    -1.8610995    -0.9031984
C           0.5399508    -2.5605401    -2.1155319
H           1.4338960    -2.5224611    -2.7214814
C          -0.5834651    -3.2847556    -2.5227765
H          -0.5516480    -3.8215366    -3.4663611
27
055_C13H11NO2_0-2-9-10 (30,) energy =    -707.2209750
N           1.5935553    -1.0955571    -0.4075455
H           1.3647423    -0.5573538     0.4169705
C           2.8562866    -0.9422329    -0.9322323
C           5.5900309     1.5279621     1.2949358
H           6.2922908     2.1525007     1.8405778
C           5.6935486     1.4042393    -0.0932039
H           6.4762875     1.9333662    -0.6299270
C           4.7979941     0.5982012    -0.7914347
H           4.8737095     0.4739867    -1.8667034
C           3.7744240    -0.0770084    -0.1128937
C           3.6855409     0.0378910     1.2819882
H           2.9339067    -0.5205693     1.8343630
C           4.5900572     0.8373760     1.9814220
H           4.5187121     0.9124617     3.0630562
O           3.2209488    -1.4375663    -1.9941926
C          -1.7360791    -3.3166648    -1.7228019
H          -2.6119954    -3.8779582    -2.0344995
C          -1.7884922    -2.5416052    -0.5610924
H          -2.6983616    -2.4968065     0.0351320
C          -0.6699057    -1.8214369    -0.1576424
O          -0.6453793    -1.0385667     0.9764215
H          -1.5151334    -1.0683610     1.4023918
C           0.5238909    -1.8588851    -0.9086765
C           0.5664020    -2.6375941    -2.0709919
H           1.4813073    -2.6611663    -2.6458766
C          -0.5609338    -3.3605952    -2.4693229
H          -0.5113526    -3.9597923    -3.3737500
27
055_C13H11NO2_0-2-9-10 (45,) energy =    -707.2198418
N           1.6032124    -1.0896455    -0.4150256
H           1.3695013    -0.5032648     0.3753674
C           2.8909012    -1.0100933    -0.8944727
C           5.5779466     1.5352627     1.2988369
H           6.2720977     2.1725986     1.8400277
C           5.5682094     1.5396529    -0.0990179
H           6.2546151     2.1803121    -0.6459855
C           4.6871587     0.7150754    -0.7944669
H           4.6878887     0.6853628    -1.8795044
C           3.7828515    -0.0974104    -0.0979887
C           3.8107904    -0.1146146     1.3031577
H           3.1481096    -0.7793003     1.8520144
C           4.7050999     0.7008888     1.9984158
H           4.7260731     0.6763154     3.0845693
O           3.2881195    -1.5803670    -1.9047903
C          -1.7349679    -3.3066569    -1.7156124
H          -2.6136003    -3.8644739    -2.0259146
C          -1.8113341    -2.4550181    -0.6102444
H          -2.7426917    -2.3470129    -0.0568401
C          -0.6896831    -1.7384821    -0.2082474
O          -0.6875195    -0.8828817     0.8717589
H          -1.5739910    -0.8612689     1.2622780
C           0.5312143    -1.8577886    -0.9048400
C           0.5978178    -2.7127230    -2.0110261
H           1.5342520    -2.7983339    -2.5440802
C          -0.5328722    -3.4310317    -2.4082467
H          -0.4645407    -4.0902441    -3.2686195
27
055_C13H11NO2_0-2-9-10 (60,) energy =    -707.2176965
N           1.5962998    -1.0948744    -0.4272367
H           1.3538140    -0.4663791     0.3278127
C           2.9080760    -1.0905281    -0.8422386
C           5.5621505     1.5355573     1.2967925
H           6.2506457     2.1891109     1.8257278
C           5.4131618     1.6502993    -0.0883473
H           5.9862668     2.3924097    -0.6375597
C           4.5403359     0.8053424    -0.7704856
H           4.4413800     0.8650549    -1.8502027
C           3.7799458    -0.1373312    -0.0666121
C           3.9482945    -0.2645461     1.3180973
H           3.3911955    -1.0229360     1.8627844
C           4.8360276     0.5719240     1.9975330
H           4.9655137     0.4643475     3.0710807
O           3.3400074    -1.7413067    -1.7862222
C          -1.7460449    -3.3010434    -1.7367764
H          -2.6261480    -3.8538344    -2.0518957
C          -1.8450892    -2.3823073    -0.6884619
H          -2.7958637    -2.2168225    -0.1845044
C          -0.7216820    -1.6715887    -0.2805749
O          -0.7415602    -0.7520465     0.7449132
H          -1.6416406    -0.6884903     1.0979469
C           0.5236188    -1.8652512    -0.9139764
C           0.6130343    -2.7867884    -1.9635168
H           1.5689650    -2.9293907    -2.4476694
C          -0.5196710    -3.4983218    -2.3671576
H          -0.4336831    -4.2100961    -3.1828979
27
055_C13H11NO2_0-2-9-10 (75,) energy =    -707.2153800
N           1.6174076    -1.1072782    -0.4252793
H           1.3667778    -0.4263035     0.2801450
C           2.9447538    -1.1737082    -0.7772284
C           5.5716539     1.5499523     1.2810621
H           6.2521145     2.2271136     1.7903075
C           5.2455129     1.7632148    -0.0607037
H           5.6727606     2.6058977    -0.5975810
C           4.3797898     0.8902001    -0.7179735
H           4.1433799     1.0393072    -1.7677430
C           3.8112859    -0.1882495    -0.0288147
C           4.1525324    -0.4083459     1.3109684
H           3.7345012    -1.2604895     1.8409928
C           5.0293000     0.4603602     1.9636355
H           5.2919525     0.2818923     3.0028895
O           3.4002336    -1.9145939    -1.6389364
C          -1.7417180    -3.2792631    -1.7498663
H          -2.6264200    -3.8213017    -2.0707417
C          -1.8555213    -2.2867558    -0.7727017
H          -2.8224956    -2.0528781    -0.3304479
C          -0.7265337    -1.5891019    -0.3574551
O          -0.7597460    -0.5998255     0.6002575
H          -1.6713220    -0.4847970     0.9078283
C           0.5391784    -1.8707235    -0.9123447
C           0.6434651    -2.8658912    -1.8907137
H           1.6156905    -3.0762388    -2.3139981
C          -0.4951155    -3.5632878    -2.3025898
H          -0.3974859    -4.3328320    -3.0626664
27
055_C13H11NO2_0-2-9-10 (90,) energy =    -707.2142640
N           1.6413935    -1.1281491    -0.4331764
H           1.3886735    -0.3859373     0.2066895
C           2.9782876    -1.2705552    -0.7179476
C           5.5421528     1.5588211     1.2828160
H           6.1999738     2.2661706     1.7806007
C           5.0254580     1.8542536     0.0197286
H           5.2805228     2.7911141    -0.4683014
C           4.1817305     0.9465222    -0.6214646
H           3.7854948     1.1720758    -1.6079961
C           3.8483921    -0.2626050     0.0002009
C           4.3703452    -0.5572799     1.2651887
H           4.1202092    -1.4996921     1.7453112
C           5.2147164     0.3519632     1.9037388
H           5.6177310     0.1166128     2.8851332
O           3.4436032    -2.1133924    -1.4736174
C          -1.7464185    -3.2512913    -1.7649356
H          -2.6385638    -3.7786663    -2.0896049
C          -1.8616181    -2.1814876    -0.8732288
H          -2.8371182    -1.8724030    -0.5014843
C          -0.7230583    -1.5021676    -0.4537608
O          -0.7574961    -0.4399399     0.4220926
H          -1.6761660    -0.2663795     0.6765063
C           0.5538124    -1.8799556    -0.9184669
C           0.6596051    -2.9524786    -1.8111433
H           1.6405805    -3.2378644    -2.1644986
C          -0.4887853    -3.6304019    -2.2283340
H          -0.3898868    -4.4605891    -2.9214729
27
055_C13H11NO2_0-2-9-10 (105,) energy =    -707.2150983
N           1.6725539    -1.1275700    -0.4539288
H           1.4231659    -0.3254185     0.1103404
C           3.0138137    -1.3421394    -0.6680571
C           5.5134072     1.5646500     1.3010494
H           6.1462603     2.2931538     1.8007083
C           4.8113541     1.9214724     0.1488262
H           4.8970628     2.9275284    -0.2529947
C           3.9935346     0.9869943    -0.4892081
H           3.4439731     1.2665570    -1.3844764
C           3.8909627    -0.3164428     0.0114105
C           4.5929593    -0.6693243     1.1702026
H           4.5121557    -1.6809768     1.5580518
C           5.4007691     0.2691968     1.8115729
H           5.9424995    -0.0105000     2.7110977
O           3.4754795    -2.2832404    -1.3007266
C          -1.7415366    -3.2199223    -1.7665165
H          -2.6404479    -3.7374908    -2.0883168
C          -1.8494906    -2.0735081    -0.9746943
H          -2.8262831    -1.6948018    -0.6784023
C          -0.7022076    -1.4063541    -0.5595128
O          -0.7291761    -0.2710257     0.2197582
H          -1.6495762    -0.0441542     0.4202450
C           0.5764809    -1.8735234    -0.9283208
C           0.6749852    -3.0225854    -1.7210418
H           1.6574637    -3.3770856    -1.9996553
C          -0.4822302    -3.6873361    -2.1350582
H          -0.3889354    -4.5775179    -2.7501319
27
055_C13H11NO2_0-2-9-10 (120,) energy =    -707.2173342
N           1.6659353    -1.1164845    -0.4637762
H           1.4149540    -0.2719864     0.0337653
C           3.0091377    -1.3850378    -0.5944586
C           5.5027300     1.5638140     1.3076913
H           6.1324508     2.3016047     1.7975997
C           4.6333519     1.9542203     0.2881194
H           4.5875987     2.9947559    -0.0218527
C           3.8177870     1.0078823    -0.3349930
H           3.1397601     1.3124616    -1.1284893
C           3.8890639    -0.3394374     0.0410178
C           4.7615120    -0.7262051     1.0659670
H           4.8131625    -1.7729133     1.3508191
C           5.5629406     0.2231615     1.6975999
H           6.2350126    -0.0820407     2.4950888
O           3.4673751    -2.3981488    -1.1093416
C          -1.7470002    -3.2146312    -1.7694180
H          -2.6457817    -3.7319579    -2.0919538
C          -1.8558635    -2.0076396    -1.0735605
H          -2.8329039    -1.5809799    -0.8528637
C          -0.7086042    -1.3408218    -0.6581439
O          -0.7373668    -0.1475512     0.0294623
H          -1.6589030     0.1160303     0.1712755
C           0.5710913    -1.8684191    -0.9298285
C           0.6702248    -3.0780970    -1.6266733
H           1.6528488    -3.4800886    -1.8299896
C          -0.4869392    -3.7420186    -2.0420214
H          -0.3930251    -4.6796468    -2.5819138
27
055_C13H11NO2_0-2-9-10 (135,) energy =    -707.2195892
N           1.6572560    -1.0990046    -0.4525260
H           1.3972958    -0.2300944    -0.0047708
C           2.9980445    -1.4078797    -0.4889552
C           5.5522181     1.5594876     1.2965680
H           6.2018587     2.2980639     1.7585192
C           4.5377233     1.9667535     0.4287787
H           4.4006159     3.0214986     0.2062975
C           3.6980906     1.0189841    -0.1583135
H           2.9169810     1.3393719    -0.8435221
C           3.8826930    -0.3452327     0.1040276
C           4.9074020    -0.7484838     0.9698883
H           5.0481440    -1.8086503     1.1560597
C           5.7343307     0.2004352     1.5670736
H           6.5224767    -0.1188244     2.2435789
O           3.4511493    -2.4686298    -0.9053834
C          -1.7359942    -3.2038253    -1.7966154
H          -2.6301689    -3.7210896    -2.1317826
C          -1.8498703    -1.9550317    -1.1797687
H          -2.8260399    -1.4955710    -1.0336618
C          -0.7085758    -1.2881359    -0.7487177
O          -0.7417495    -0.0545538    -0.1358989
H          -1.6629746     0.2328406    -0.0489646
C           0.5701904    -1.8573670    -0.9244066
C           0.6741585    -3.1086995    -1.5427485
H           1.6555018    -3.5429959    -1.6720053
C          -0.4769485    -3.7723829    -1.9748721
H          -0.3791607    -4.7426525    -2.4528725
27
055_C13H11NO2_0-2-9-10 (150,) energy =    -707.2209046
N           1.6317558    -1.0852949    -0.4337554
H           1.3586563    -0.1977969    -0.0340758
C           2.9638837    -1.4240848    -0.3680800
C           5.6036206     1.5569079     1.2684740
H           6.2810253     2.2948794     1.6897366
C           4.4675201     1.9695285     0.5703792
H           4.2634822     3.0284127     0.4369155