27
055_C13H11NO2_22-0-2-9 (-165,) energy =    -707.2256417
N           1.6522565    -1.0618428    -0.7363671
H           1.8095853    -0.2464331    -1.3126782
C           2.5347894    -1.2408095     0.2874471
C           5.5770733     1.7331740     0.9051949
H           6.3567880     2.4710992     1.0726676
C           5.7610055     0.4124056     1.3220295
H           6.6847238     0.1198038     1.8132148
C           4.7600122    -0.5323469     1.1118732
H           4.8795463    -1.5594299     1.4397076
C           3.5679138    -0.1704251     0.4685139
C           3.3840527     1.1605811     0.0650456
H           2.4474469     1.4816256    -0.3840316
C           4.3845039     2.1069788     0.2832185
H           4.2278706     3.1371761    -0.0237416
O           2.5137518    -2.2270580     1.0383458
C          -2.0473532    -2.8521226    -1.7267916
H          -2.9946664    -3.3027687    -2.0095437
C          -1.0399883    -3.6466035    -1.1930918
H          -1.1751653    -4.7147009    -1.0546892
C           0.2032588    -3.1082117    -0.8241864
O           1.1436837    -3.9653481    -0.3741344
H           1.7646865    -3.4678525     0.2197923
C           0.4082915    -1.7197791    -0.9932583
C          -0.6218870    -0.9280215    -1.5198792
H          -0.4510849     0.1406548    -1.6370353
C          -1.8426925    -1.4794788    -1.8922298
H          -2.6232798    -0.8448000    -2.3002436
27
055_C13H11NO2_22-0-2-9 (-150,) energy =    -707.2236416
N           1.8040782    -1.2340767    -0.9135721
H           1.9556543    -0.4108769    -1.4813547
C           2.6622887    -1.3716806     0.1438822
C           5.4384690     1.7969165     0.9994065
H           6.1481427     2.5866285     1.2302281
C           5.6905024     0.4855134     1.4109577
H           6.5976431     0.2523482     1.9612634
C           4.7788063    -0.5250170     1.1187585
H           4.9519214    -1.5464290     1.4404269
C           3.6082854    -0.2391540     0.4005199
C           3.3567282     1.0815442     0.0003547
H           2.4330022     1.3407752    -0.5103907
C           4.2677047     2.0939723     0.2998883
H           4.0576597     3.1151974    -0.0050492
O           2.6600470    -2.3649850     0.8832090
C          -2.0924170    -2.7314186    -1.5926717
H          -3.0899891    -3.1112515    -1.7952145
C          -1.1166744    -3.5901448    -1.0995361
H          -1.3273194    -4.6388897    -0.9151115
C           0.1865098    -3.1425067    -0.8327925
O           1.0882742    -4.0545631    -0.4103552
H           1.7932252    -3.5863922     0.1063713
C           0.4877751    -1.7814640    -1.0642344
C          -0.5073217    -0.9244455    -1.5508855
H          -0.2599245     0.1219804    -1.7211876
C          -1.7919179    -1.3860090    -1.8201975
H          -2.5460790    -0.7025828    -2.1981048
27
055_C13H11NO2_22-0-2-9 (-135,) energy =    -707.2197161
N           1.9474815    -1.4065696    -1.0787463
H           2.1016547    -0.5827852    -1.6468170
C           2.7972082    -1.5017322     0.0012881
C           5.2630972     1.8488410     1.0769818
H           5.8920619     2.6862029     1.3664860
C           5.5907844     0.5525409     1.4840778
H           6.4761655     0.3792970     2.0891743
C           4.7824693    -0.5188218     1.1161230
H           5.0145968    -1.5304086     1.4317060
C           3.6402021    -0.3090713     0.3282803
C           3.3136440     0.9956138    -0.0699783
H           2.4094959     1.1926194    -0.6393908
C           4.1210726     2.0689090     0.3054806
H           3.8526674     3.0767974     0.0020900
O           2.8320894    -2.5060575     0.7210801
C          -2.1024004    -2.5778923    -1.4456857
H          -3.1391683    -2.8791447    -1.5673845
C          -1.1679525    -3.5001605    -0.9864731
H          -1.4502786    -4.5212789    -0.7500516
C           0.1809790    -3.1521974    -0.8226644
O           1.0351132    -4.1190333    -0.4207694
H           1.8248144    -3.6957073    -0.0008900
C           0.5744868    -1.8295200    -1.1243130
C          -0.3762968    -0.9083566    -1.5771174
H          -0.0575504     0.1070223    -1.8069838
C          -1.7103858    -1.2707166    -1.7431131
H          -2.4309420    -0.5396434    -2.0966762
27
055_C13H11NO2_22-0-2-9 (-120,) energy =    -707.2142597
N           2.0834939    -1.5764242    -1.2444387
H           2.2500257    -0.7541988    -1.8139277
C           2.9362858    -1.6293101    -0.1476602
C           5.0493877     1.8793241     1.1435910
H           5.5870836     2.7578413     1.4895394
C           5.4682305     0.6036628     1.5331223
H           6.3329152     0.4882399     2.1804286
C           4.7769655    -0.5205420     1.0930171
H           5.0799259    -1.5180363     1.3931529
C           3.6618151    -0.3841595     0.2509584
C           3.2453066     0.8991843    -0.1323714
H           2.3608662     1.0340922    -0.7480208
C           3.9348917     2.0252721     0.3164307
H           3.5966617     3.0155927     0.0253464
O           3.0279586    -2.6498191     0.5386437
C          -2.0707227    -2.4001064    -1.2915618
H          -3.1345353    -2.6177160    -1.3287564
C          -1.1833594    -3.3803794    -0.8578684
H          -1.5299702    -4.3648804    -0.5595922
C           0.1962947    -3.1383739    -0.8018838
O           0.9980411    -4.1558214    -0.4137508
H           1.8668811    -3.7946719    -0.1157475
C           0.6729365    -1.8654474    -1.1852296
C          -0.2283998    -0.8865781    -1.6136999
H           0.1531388     0.0876826    -1.9150390
C          -1.5966174    -1.1434567    -1.6729289
H          -2.2790702    -0.3695534    -2.0106522
27
055_C13H11NO2_22-0-2-9 (-105,) energy =    -707.2078164
N           2.1988051    -1.7290754    -1.4134496
H           2.3734105    -0.9176698    -1.9988015
C           3.0734372    -1.7439136    -0.3110761
C           4.8060817     1.8753230     1.2152321
H           5.2465918     2.7822482     1.6202966
C           5.2993817     0.6248413     1.6000366
H           6.1247639     0.5578516     2.3030444
C           4.7328685    -0.5354513     1.0832706
H           5.0953941    -1.5149336     1.3763913
C           3.6673914    -0.4607605     0.1707097
C           3.1781216     0.7974991    -0.2101579
H           2.3328775     0.8812954    -0.8856302
C           3.7429105     1.9592818     0.3151872
H           3.3483646     2.9287865     0.0250619
O           3.2523714    -2.7865821     0.3155106
C          -2.0015266    -2.2193383    -1.1134411
H          -3.0777261    -2.3577112    -1.0582954
C          -1.1545788    -3.2445336    -0.7015068
H          -1.5460098    -4.1868468    -0.3310305
C           0.2376800    -3.1023353    -0.7643800
O           0.9946891    -4.1587619    -0.3866437
H           1.9262329    -3.8741554    -0.2472230
C           0.7736438    -1.8860803    -1.2419271
C          -0.0866154    -0.8639679    -1.6509711
H           0.3364587     0.0624628    -2.0359524
C          -1.4708150    -1.0212790    -1.5940960
H          -2.1210960    -0.2156379    -1.9210143
27
055_C13H11NO2_22-0-2-9 (-90,) energy =    -707.2057135
N           1.4154701    -1.9884319     0.9296433
H           0.9362150    -2.4096096     1.7290226
C           2.0379186    -0.8089024     1.4793952
C           5.6234689     0.6617266    -0.3509491
H           6.5375325     1.0420840    -0.7991850
C           5.0916232     1.2813612     0.7839516
H           5.5899566     2.1433640     1.2186435
C           3.9207455     0.7950133     1.3562956
H           3.4895522     1.2608085     2.2361179
C           3.2741923    -0.3237588     0.8061870
C           3.8119405    -0.9399499    -0.3337094
H           3.3198804    -1.8013153    -0.7699808
C           4.9813727    -0.4456210    -0.9090100
H           5.3926520    -0.9275271    -1.7914432
O           1.6351870    -0.3405202     2.5306140
C          -1.4077794    -1.4256039    -2.1816688
H          -2.1201695    -1.3051423    -2.9933614
C          -0.4426947    -2.4282101    -2.2652874
H          -0.3844379    -3.0918927    -3.1220939
C           0.4746102    -2.5840766    -1.2236571
O           1.4265888    -3.5540901    -1.2928215
H           1.9224501    -3.4845746    -0.4506845
C           0.4171245    -1.7370411    -0.1033289
C          -0.5530983    -0.7374326    -0.0293415
H          -0.5855008    -0.0930949     0.8448095
C          -1.4682572    -0.5785087    -1.0711695
H          -2.2236214     0.1993815    -1.0146376
27
055_C13H11NO2_22-0-2-9 (-75,) energy =    -707.2099942
N           1.3681523    -2.0425936     1.0340471
H           0.8387336    -2.4552755     1.8044028
C           2.0819811    -0.9529834     1.6208817
C           5.4243201     0.7252478    -0.4745851
H           6.2790351     1.1589253    -0.9869030
C           4.9496703     1.3060716     0.7050346
H           5.4325633     2.1905668     1.1110699
C           3.8561947     0.7500794     1.3615973
H           3.4740401     1.1791906     2.2819525
C           3.2264417    -0.3930907     0.8454913
C           3.7069728    -0.9720173    -0.3383296
H           3.2371369    -1.8603042    -0.7445735
C           4.8033674    -0.4129892    -0.9930367
H           5.1741161    -0.8688171    -1.9067820
O           1.8308101    -0.6038869     2.7631270
C          -1.2181376    -1.3279775    -2.2421709
H          -1.8750399    -1.1694980    -3.0931218
C          -0.3346347    -2.4061279    -2.2547391
H          -0.2851201    -3.0908773    -3.0953261
C           0.5119277    -2.6120206    -1.1629346
O           1.3892764    -3.6525447    -1.1691363
H           1.8578597    -3.6043657    -0.3108460
C           0.4647700    -1.7386290    -0.0631428
C          -0.4240676    -0.6629941    -0.0610504
H          -0.4520423     0.0002465     0.7995390
C          -1.2666831    -0.4525481    -1.1531243
H          -1.9575594     0.3849820    -1.1518399
27
055_C13H11NO2_22-0-2-9 (-60,) energy =    -707.2130700
N           1.3105342    -2.0524999     1.1175670
H           0.7514772    -2.4554934     1.8702366
C           2.1398135    -1.0726605     1.7168954
C           5.2664292     0.7833406    -0.5623020
H           6.0676886     1.2598006    -1.1209481
C           4.8463424     1.3224016     0.6567798
H           5.3195311     2.2184951     1.0486247
C           3.8229083     0.7081486     1.3725616
H           3.4914276     1.1019631     2.3277128
C           3.2010162    -0.4458592     0.8724471
C           3.6292242    -0.9848945    -0.3493600
H           3.1764445    -1.8894291    -0.7391821
C           4.6604608    -0.3719568    -1.0598389
H           4.9921080    -0.7997430    -2.0017496
O           2.0433043    -0.8472124     2.9136109
C          -1.0690288    -1.2689708    -2.2926601
H          -1.6783169    -1.0933701    -3.1750668
C          -0.2529547    -2.3974531    -2.2415377
H          -0.2083837    -3.1052065    -3.0631303
C           0.5323931    -2.6257379    -1.1090274
O           1.3478213    -3.7144320    -1.0612812
H           1.7889864    -3.6775728    -0.1886660
C           0.4928585    -1.7242767    -0.0317993
C          -0.3299195    -0.5985149    -0.0945403
H          -0.3546738     0.0872623     0.7483573
C          -1.1100795    -0.3647232    -1.2269343
H          -1.7479029     0.5125299    -1.2750212
27
055_C13H11NO2_22-0-2-9 (-45,) energy =    -707.2145728
N           1.2498627    -2.0474463     1.1888773
H           0.6766670    -2.4401677     1.9342883
C           2.2003309    -1.1951486     1.7809970
C           5.1365098     0.8268211    -0.6109181
H           5.8902412     1.3453396    -1.1975505
C           4.7627132     1.3198217     0.6419929
H           5.2251778     2.2218676     1.0330479
C           3.8018117     0.6501712     1.3945866
H           3.5130401     1.0053430     2.3783995
C           3.1892315    -0.5078432     0.8936382
C           3.5738728    -1.0030760    -0.3605541
H           3.1372912    -1.9169199    -0.7476815
C           4.5475440    -0.3384581    -1.1052825
H           4.8472251    -0.7336756    -2.0718480
O           2.2412149    -1.0913092     2.9983564
C          -0.9542252    -1.2386864    -2.3271873
H          -1.5225052    -1.0563039    -3.2352063
C          -0.2023774    -2.4065369    -2.2170265
H          -0.1672932    -3.1386510    -3.0174604
C           0.5303595    -2.6445229    -1.0515772
O           1.2858227    -3.7721349    -0.9525913
H           1.7026596    -3.7395998    -0.0685006
C           0.5038024    -1.7123408    -0.0001495
C          -0.2560776    -0.5474210    -0.1228196
H          -0.2716640     0.1623542     0.6999977
C          -0.9826294    -0.3036360    -1.2877822
H          -1.5697522     0.6047219    -1.3816996
27
055_C13H11NO2_22-0-2-9 (-30,) energy =    -707.2145228
N           1.2003480    -1.9968673     1.2451298
H           0.6257693    -2.3835497     1.9907561
C           2.2639840    -1.2809166     1.8079890
C           5.0580452     0.8809473    -0.6335318
H           5.7766437     1.4353447    -1.2312794
C           4.7280008     1.3230043     0.6501486
H           5.1893942     2.2196971     1.0546683
C           3.8138556     0.6070498     1.4185969
H           3.5653239     0.9215142     2.4269824
C           3.1988000    -0.5420919     0.9011477
C           3.5423810    -0.9877928    -0.3828860
H           3.1107608    -1.8998362    -0.7802258
C           4.4728433    -0.2796360    -1.1429858
H           4.7416075    -0.6375499    -2.1329248
O           2.4179783    -1.2914506     3.0213440
C          -0.8775998    -1.2442601    -2.3559474
H          -1.4172716    -1.0745808    -3.2836988
C          -0.1655396    -2.4297267    -2.1880318
H          -0.1337518    -3.1886243    -2.9632443
C           0.5302769    -2.6519410    -0.9968123
O           1.2483242    -3.7981011    -0.8470529
H           1.6426728    -3.7570989     0.0462858
C           0.5076216    -1.6849479     0.0230989
C          -0.2136227    -0.5026624    -0.1579981
H          -0.2259547     0.2333297     0.6412518
C          -0.9027854    -0.2749167    -1.3482389
H          -1.4586785     0.6472731    -1.4865946
27
055_C13H11NO2_22-0-2-9 (-15,) energy =    -707.2133402
N           1.1298038    -1.9260888     1.2759313
H           0.5640938    -2.3365271     2.0142703
C           2.2860949    -1.3552939     1.8066079
C           5.0118942     0.9284130    -0.6053081
H           5.7131468     1.5128437    -1.1950132
C           4.7258285     1.2977955     0.7113585
H           5.2050012     2.1686579     1.1502001
C           3.8348334     0.5417890     1.4689519
H           3.6238195     0.7987478     2.5019037
C           3.1951530    -0.5725910     0.9074411
C           3.4958991    -0.9470958    -0.4094877
H           3.0492014    -1.8348867    -0.8432808
C           4.4053130    -0.2004998    -1.1585233
H           4.6412284    -0.5045142    -2.1745193
O           2.5194642    -1.4808147     3.0013444
C          -0.8473523    -1.2889971    -2.4000354
H          -1.3634882    -1.1474344    -3.3457167
C          -0.1624108    -2.4797349    -2.1696527
H          -0.1286485    -3.2697583    -2.9130619
C           0.5040300    -2.6684524    -0.9558004
O           1.1949804    -3.8225085    -0.7514545
H           1.5794348    -3.7620772     0.1440328
C           0.4789710    -1.6608694     0.0248431
C          -0.2155687    -0.4736113    -0.2200169
H          -0.2285597     0.2925150     0.5500756
C          -0.8750181    -0.2796140    -1.4325049
H          -1.4094458     0.6467202    -1.6192360
27
055_C13H11NO2_22-0-2-9 (0,) energy =    -707.2114988
N           1.1002267    -1.8346507     1.2860166
H           0.5651577    -2.2898438     2.0205731
C           2.3274014    -1.3928145     1.7702111
C           5.0088617     1.0222407    -0.5670609
H           5.6996583     1.6390630    -1.1357648
C           4.8105293     1.2640128     0.7946100
H           5.3482281     2.0678955     1.2898470
C           3.9329632     0.4656360     1.5237308
H           3.7903554     0.6216701     2.5879491
C           3.2174413    -0.5623974     0.8923672
C           3.4300893    -0.8093539    -0.4710827
H           2.9212434    -1.6274386    -0.9679872
C           4.3270363    -0.0219118    -1.1934743
H           4.4932492    -0.2278068    -2.2472163
O           2.6258407    -1.6321480     2.9336250
C          -0.8442359    -1.3802917    -2.4324705
H          -1.3546851    -1.2829923    -3.3867734
C          -0.2342345    -2.5891840    -2.1065543
H          -0.2524146    -3.4365617    -2.7844377
C           0.4269322    -2.7221909    -0.8819873
O           1.0425344    -3.9006073    -0.5931207
H           1.4668726    -3.7961880     0.2785621
C           0.4659701    -1.6401922     0.0167678
C          -0.1558550    -0.4358498    -0.3231986
H          -0.1188656     0.3860092     0.3857823
C          -0.8045632    -0.2971122    -1.5487281
H          -1.2811337     0.6429065    -1.8090947
27
055_C13H11NO2_22-0-2-9 (15,) energy =    -707.2110789
N           0.7847109    -1.2688897     1.3828135
H           0.1729489    -1.5454061     2.1448871
C           2.0462036    -0.9281174     1.8575121
C           5.1327709     0.7058082    -0.6525675
H           5.9298794     1.1185085    -1.2652846
C           5.4400609    -0.0606805     0.4744753
H           6.4765683    -0.2449263     0.7432011
C           4.4168134    -0.5817262     1.2610535
H           4.6373967    -1.1556982     2.1549123
C           3.0728773    -0.3656924     0.9182739
C           2.7713177     0.4128826    -0.2084135
H           1.7412448     0.6167233    -0.4742713
C           3.7994277     0.9486973    -0.9846973
H           3.5555324     1.5584470    -1.8502698
O           2.2977390    -1.0956916     3.0462847
C          -0.6945230    -1.8736700    -2.5280490
H          -1.0736753    -2.0378765    -3.5329599
C           0.3033482    -2.7065328    -2.0308409
H           0.7059177    -3.5245341    -2.6196896
C           0.7969342    -2.5135695    -0.7358688
O           1.7479691    -3.3714691    -0.2815720
H           1.9211472    -3.1689705     0.6534255
C           0.3023989    -1.4535127     0.0487965
C          -0.7115226    -0.6353361    -0.4610109
H          -1.0907894     0.1677134     0.1654392
C          -1.2155166    -0.8395437    -1.7435289
H          -2.0012946    -0.1971360    -2.1289067
27
055_C13H11NO2_22-0-2-9 (30,) energy =    -707.2105551
N           0.7583972    -1.1718460     1.3785264
H           0.1657071    -1.4988308     2.1369435
C           2.0637528    -0.9880018     1.8269316
C           5.1105539     0.7709548    -0.6408782
H           5.8974040     1.2144806    -1.2452828
C           5.4356758    -0.0923537     0.4086825
H           6.4756267    -0.3211570     0.6245639
C           4.4262801    -0.6542854     1.1849389
H           4.6604199    -1.3074424     2.0190631
C           3.0787084    -0.3777214     0.9083268
C           2.7589921     0.4963349    -0.1404128
H           1.7251941     0.7420287    -0.3514809
C           3.7734435     1.0698281    -0.9069931
H           3.5172072     1.7527137    -1.7122710
O           2.3494931    -1.2962642     2.9799309
C          -0.6747709    -1.9380733    -2.5243388
H          -1.0424038    -2.1415623    -3.5263323
C           0.2824316    -2.7789958    -1.9649511
H           0.6637307    -3.6416330    -2.5020279
C           0.7607492    -2.5366233    -0.6723708
O           1.6707109    -3.4088495    -0.1605853
H           1.8286426    -3.1904453     0.7729361
C           0.2934688    -1.4184087     0.0458089
C          -0.6802946    -0.5928055    -0.5258363
H          -1.0394555     0.2547192     0.0518238
C          -1.1700481    -0.8457857    -1.8049681
H          -1.9246860    -0.1964996    -2.2381293
27
055_C13H11NO2_22-0-2-9 (45,) energy =    -707.2097390
N           0.7538072    -1.0895388     1.3512389
H           0.1838177    -1.4697436     2.1043356
C           2.0913214    -1.0607474     1.7567610
C           5.0975705     0.8858157    -0.6098671
H           5.8736762     1.3757954    -1.1918739
C           5.4391866    -0.0897655     0.3306266
H           6.4804633    -0.3597780     0.4830299
C           4.4443705    -0.7128671     1.0783538
H           4.6910425    -1.4587160     1.8267145
C           3.0954780    -0.3801602     0.8823016
C           2.7594408     0.6046457    -0.0572838
H           1.7236333     0.8880039    -0.2008164
C           3.7590837     1.2359132    -0.7966202
H           3.4917068     2.0036387    -1.5174027
O           2.4041140    -1.5432238     2.8418284
C          -0.6569789    -2.0352084    -2.5244425
H          -1.0184125    -2.2849412    -3.5182261
C           0.2173308    -2.9041265    -1.8787600
H           0.5398284    -3.8319195    -2.3405357
C           0.6871580    -2.6021078    -0.5954750
O           1.5148627    -3.5043407     0.0004210
H           1.6845232    -3.2399110     0.9199733
C           0.2946307    -1.3994126     0.0245846
C          -0.5973280    -0.5464666    -0.6319286
H          -0.9023687     0.3650831    -0.1251251
C          -1.0777504    -0.8555661    -1.9022156
H          -1.7685254    -0.1840310    -2.4027888
27
055_C13H11NO2_22-0-2-9 (60,) energy =    -707.2085691
N           0.7831311    -1.0023459     1.3035759
H           0.2363411    -1.4189178     2.0570562
C           2.1411418    -1.1157956     1.6491800
C           5.1150639     1.0611870    -0.5382695
H           5.8823048     1.6088542    -1.0791251
C           5.4677346    -0.0323617     0.2576978
H           6.5076323    -0.3366295     0.3371291
C           4.4853157    -0.7310219     0.9528410
H           4.7393120    -1.5744496     1.5863339
C           3.1386420    -0.3503836     0.8489911
C           2.7914914     0.7511712     0.0542112
H           1.7563030     1.0648297    -0.0094292
C           3.7785415     1.4543428    -0.6344151
H           3.5048867     2.3116698    -1.2430264
O           2.4672410    -1.7839566     2.6281398
C          -0.6765539    -2.1586817    -2.5020756
H          -1.0521906    -2.4635693    -3.4750577
C           0.0782329    -3.0547296    -1.7513778
H           0.2954028    -4.0552826    -2.1117568
C           0.5669856    -2.6807966    -0.4938156
O           1.2733345    -3.6115953     0.2054453
H           1.5339379    -3.2672962     1.0773431
C           0.3078656    -1.3841509    -0.0057340
C          -0.4648422    -0.5030914    -0.7657774
H          -0.6733214     0.4813149    -0.3559926
C          -0.9591964    -0.8796851    -2.0123781
H          -1.5570946    -0.1856346    -2.5950514
27
055_C13H11NO2_22-0-2-9 (75,) energy =    -707.2070462
N           0.8297349    -0.9486171     1.2260701
H           0.3107059    -1.3887254     1.9876985
C           2.2019101    -1.1784535     1.4920411
C           5.1446637     1.2721905    -0.4163695
H           5.9025699     1.8890625    -0.8919294
C           5.5046694     0.0585689     0.1773374
H           6.5402678    -0.2692393     0.1630357
C           4.5350282    -0.7299762     0.7886276
H           4.7939233    -1.6714952     1.2617094
C           3.1938056    -0.3152521     0.8029528
C           2.8395492     0.9062356     0.2122035
H           1.8088053     1.2385178     0.2525062
C           3.8141743     1.6964675    -0.3941748
H           3.5373747     2.6455708    -0.8444793
O           2.5340447    -2.0320301     2.3138371
C          -0.7476458    -2.3151912    -2.4681233
H          -1.1580792    -2.6748150    -3.4078647
C          -0.1645840    -3.2212783    -1.5877398
H          -0.1113900    -4.2811475    -1.8160794
C           0.3724194    -2.7772913    -0.3726290
O           0.9005033    -3.7158439     0.4586835
H           1.3550013    -3.3080116     1.2211937
C           0.3183271    -1.4040174    -0.0539262
C          -0.2801548    -0.5102076    -0.9432719
H          -0.3323703     0.5377645    -0.6634982
C          -0.8106412    -0.9544475    -2.1525209
H          -1.2725092    -0.2499993    -2.8375150
27
055_C13H11NO2_22-0-2-9 (90,) energy =    -707.2051758
N           0.8840972    -0.9114223     1.0969510
H           0.3971563    -1.3495432     1.8822010
C           2.2648294    -1.2346794     1.2752918
C           5.2068519     1.4686847    -0.2435333
H           5.9631812     2.1507453    -0.6228544
C           5.5705824     0.1818428     0.1666955
H           6.6073125    -0.1365369     0.1046687
C           4.6036085    -0.6908257     0.6541939
H           4.8644114    -1.6920806     0.9809347
C           3.2609024    -0.2845181     0.7298289
C           2.9023933     1.0093050     0.3226218
H           1.8694557     1.3248872     0.4135770
C           3.8752172     1.8817093    -0.1617506
H           3.5963607     2.8853584    -0.4699713
O           2.5918236    -2.2308992     1.9194724
C          -0.9027676    -2.4475339    -2.4375523
H          -1.3746244    -2.8461517    -3.3316645
C          -0.4670564    -3.3234364    -1.4474700
H          -0.5842407    -4.3979494    -1.5478320
C           0.1527131    -2.8316301    -0.2918249
O           0.5347006    -3.7300842     0.6554451
H           1.2073049    -3.3439042     1.2569742
C           0.3091501    -1.4373599    -0.1342130
C          -0.1337707    -0.5721294    -1.1352287
H          -0.0132751     0.4963531    -0.9851414
C          -0.7334813    -1.0676062    -2.2915355
H          -1.0745992    -0.3850595    -3.0640281
27
055_C13H11NO2_22-0-2-9 (105,) energy =    -707.2078174
N           1.0410978    -1.1657723     0.8469636
H           0.8539196    -0.1758928     0.9752581
C           2.4174610    -1.4377169     0.9508151
C           5.3611839     1.5669613     0.0928254
H           6.1199207     2.3123660    -0.1293064
C           5.7133346     0.3819004     0.7461314
H           6.7456445     0.2051939     1.0343526
C           4.7417773    -0.5727252     1.0272243
H           4.9964252    -1.5022068     1.5251761
C           3.4031516    -0.3531076     0.6619836
C           3.0577991     0.8381850     0.0069063
H           2.0373642     1.0164185    -0.3165314
C           4.0351723     1.7905489    -0.2802204
H           3.7608096     2.7040163    -0.7999126
O           2.8008841    -2.5864697     1.1632752
C          -1.4108376    -2.5306038    -2.3306558
H          -2.0579183    -2.8836375    -3.1288067
C          -0.7796393    -3.4519694    -1.4995131
H          -0.9249437    -4.5202810    -1.6260663
C           0.0565809    -3.0316140    -0.4571745
O           0.6005653    -3.9838633     0.3361157
H           1.3391949    -3.6024502     0.8625052
C           0.2634437    -1.6471111    -0.2705611
C          -0.3735763    -0.7323525    -1.1127855
H          -0.2223884     0.3333350    -0.9488392
C          -1.2128911    -1.1622302    -2.1398446
H          -1.7018924    -0.4342473    -2.7799524
27
055_C13H11NO2_22-0-2-9 (120,) energy =    -707.2142607
N           1.1215109    -1.1176223     0.6190964
H           0.9484606    -0.1238241     0.7211587
C           2.4729212    -1.4253680     0.7267011
C           5.4505626     1.6427709     0.3192356
H           6.2187384     2.4037083     0.2121701
C           5.7558253     0.4199511     0.9241574
H           6.7606622     0.2289238     1.2899813
C           4.7727482    -0.5552952     1.0575158
H           4.9928791    -1.5141807     1.5145739
C           3.4688780    -0.3178803     0.5939825
C           3.1714197     0.9099898    -0.0153973
H           2.1824341     1.1030488    -0.4204962
C           4.1602498     1.8834897    -0.1548809
H           3.9235900     2.8260302    -0.6401423
O           2.8526521    -2.5934232     0.8374150
C          -1.6264495    -2.6514908    -2.2156173
H          -2.3507210    -3.0402961    -2.9260424
C          -0.9440909    -3.5294911    -1.3789574
H          -1.1235328    -4.5994478    -1.4154552
C          -0.0068856    -3.0641338    -0.4461123
O           0.5809746    -3.9742701     0.3631462
H           1.4144671    -3.5960511     0.7323260
C           0.2440598    -1.6760258    -0.3785717
C          -0.4428227    -0.8040654    -1.2282505
H          -0.2460917     0.2646568    -1.1599119
C          -1.3785352    -1.2793146    -2.1448606
H          -1.9024180    -0.5844192    -2.7940088
27
055_C13H11NO2_22-0-2-9 (135,) energy =    -707.2197162
N           1.1997341    -1.0584154     0.3639696
H           1.0224163    -0.0659922     0.4575029
C           2.5283593    -1.3981113     0.4928229
C           5.5238937     1.6822742     0.5287082
H           6.2962399     2.4464713     0.5367311
C           5.7819677     0.4195286     1.0694408
H           6.7545967     0.2001506     1.5006272
C           4.7935673    -0.5599784     1.0552637
H           4.9786846    -1.5491659     1.4602551
C           3.5305656    -0.2866246     0.5079597
C           3.2815629     0.9804942    -0.0396548
H           2.3292766     1.2037730    -0.5127440
C           4.2755198     1.9586723    -0.0307846
H           4.0765541     2.9327605    -0.4683889
O           2.9023816    -2.5755465     0.5357811
C          -1.8003442    -2.7556197    -2.0911669
H          -2.5897217    -3.1805071    -2.7050143
C          -1.0559130    -3.5840999    -1.2580597
H          -1.2491951    -4.6507842    -1.2022947
C          -0.0333232    -3.0730002    -0.4452316
O           0.6089715    -3.9348634     0.3736270
H           1.4983342    -3.5631946     0.5975338
C           0.2375646    -1.6876948    -0.4987635
C          -0.5122465    -0.8658062    -1.3472061
H          -0.2927203     0.2002099    -1.3763536
C          -1.5302711    -1.3861945    -2.1418521
H          -2.1000173    -0.7295602    -2.7921558
27
055_C13H11NO2_22-0-2-9 (150,) energy =    -707.2236416
N           1.2715191    -1.0004421     0.1007909
H           1.0924267    -0.0093450     0.1937645
C           2.5801264    -1.3680975     0.2622788
C           5.5626929     1.6927662     0.7249801
H           6.3304689     2.4521844     0.8448380
C           5.7756073     0.3983625     1.2064982
H           6.7088619     0.1488977     1.7033946