20
207_C5H9N3O2S_1-0-15-16 (-165,) energy =    -908.7528158
S           2.2905410    -1.9777719    -0.4750237
N           3.6951870    -1.6167097     0.3341539
C           4.5762508    -0.5898228    -0.2392446
H           4.5407683    -0.6523520    -1.3265166
H           5.5975481    -0.8061165     0.0911580
H           4.2874752     0.4166775     0.0857441
C           3.6578108    -1.6699347     1.7997995
H           3.0176269    -2.4939289     2.1163334
H           3.2972682    -0.7274685     2.2326302
H           4.6750013    -1.8644868     2.1546346
O           1.6819227    -3.1639232     0.1347169
O           2.5811963    -1.9468224    -1.9085681
C           0.3223604     1.2640200     0.3815415
H           0.2984307     2.2907697     0.7190983
N           1.5033621     0.5593146     0.3243468
C           1.1633487    -0.6343971    -0.1100831
N          -0.1743829    -0.7356055    -0.3549275
H          -0.6576763    -1.5725471    -0.6522788
C          -0.7293040     0.4819652    -0.0343979
H          -1.7880721     0.6713355    -0.1262360
20
207_C5H9N3O2S_1-0-15-16 (-150,) energy =    -908.7538024
S           2.3247499    -1.9152748    -0.5960436
N           3.7206457    -1.6484618     0.2714405
C           4.6470464    -0.6220776    -0.2294775
H           4.6662873    -0.6571114    -1.3182052
H           5.6453524    -0.8653268     0.1483724
H           4.3593688     0.3823519     0.1037699
C           3.6140543    -1.7372360     1.7315431
H           2.9528930    -2.5625849     1.9978173
H           3.2435128    -0.8023749     2.1750116
H           4.6116508    -1.9496750     2.1283768
O           1.6588728    -3.1105979    -0.0655067
O           2.6640053    -1.8151195    -2.0143167
C           0.3645779     1.3275838     0.2655493
H           0.3381888     2.3827494     0.4997785
N           1.5576386     0.6681748     0.0830701
C           1.2171471    -0.5764600    -0.1717752
N          -0.1347468    -0.7550639    -0.1811860
H          -0.6025358    -1.6431738    -0.3058330
C          -0.6968558     0.4656692     0.1072197
H          -1.7651726     0.6037063     0.1775413
20
207_C5H9N3O2S_1-0-15-16 (-135,) energy =    -908.7544030
S           2.3187568    -1.8980101    -0.7028593
N           3.6919826    -1.6939046     0.2244691
C           4.6379819    -0.6523211    -0.2041257
H           4.7227022    -0.6693077    -1.2901042
H           5.6132119    -0.8939855     0.2302484
H           4.3249702     0.3465294     0.1253959
C           3.5217332    -1.8195945     1.6752641
H           2.8541904    -2.6540769     1.8921683
H           3.1284641    -0.8981054     2.1295209
H           4.5022871    -2.0365201     2.1099579
O           1.6092837    -3.0894728    -0.2191796
O           2.7148656    -1.7674479    -2.1020928
C           0.3393179     1.3426555     0.1292566
H           0.2887967     2.4129696     0.2741430
N           1.5250783     0.7204358    -0.1808519
C           1.2183508    -0.5553794    -0.2760487
N          -0.1054767    -0.7917895    -0.0501297
H          -0.5325573    -1.7088797    -0.0471502
C          -0.6850255     0.4253916     0.2120398
H          -1.7378302     0.5262571     0.4281245
20
207_C5H9N3O2S_1-0-15-16 (-120,) energy =    -908.7544139
S           2.3450865    -1.8747880    -0.7538626
N           3.6871815    -1.6956817     0.2302782
C           4.6305280    -0.6288599    -0.1359197
H           4.7619517    -0.6206500    -1.2174235
H           5.5908581    -0.8605063     0.3352365
H           4.2866735     0.3589429     0.1987961
C           3.4614196    -1.8539324     1.6699229
H           2.7986861    -2.7020251     1.8431248
H           3.0379822    -0.9479577     2.1298645
H           4.4273912    -2.0653502     2.1384998
O           1.6143916    -3.0641334    -0.2956021
O           2.7962545    -1.7329205    -2.1336268
C           0.3331590     1.3632426     0.0027400
H           0.2495107     2.4403164     0.0490677
N           1.4887230     0.7570654    -0.4267933
C           1.2343508    -0.5321109    -0.3584395
N          -0.0218483    -0.7924332     0.1057052
H          -0.4046742    -1.7212322     0.2262064
C          -0.6177957     0.4225831     0.3349934
H          -1.6301039     0.5072084     0.7002985
20
207_C5H9N3O2S_1-0-15-16 (-105,) energy =    -908.7537427
S           2.3663701    -1.8583378    -0.8165459
N           3.6728774    -1.6887049     0.2229834
C           4.5941248    -0.5826868    -0.0737317
H           4.7698592    -0.5384237    -1.1481370
H           5.5415323    -0.7949641     0.4312365
H           4.2062945     0.3855149     0.2725935
C           3.4037044    -1.9038777     1.6471149
H           2.7687156    -2.7814979     1.7683525
H           2.9314481    -1.0311497     2.1246081
H           4.3606428    -2.0952484     2.1420719
O           1.6300394    -3.0544778    -0.3854700
O           2.8689330    -1.6976602    -2.1748863
C           0.3264313     1.3732837    -0.1242001
H           0.2046440     2.4469347    -0.1663296
N           1.4264943     0.7599050    -0.6716490
C           1.2363605    -0.5239619    -0.4538512
N           0.0851561    -0.7701544     0.2387009
H          -0.2563530    -1.6949809     0.4664318
C          -0.5209263     0.4444863     0.4408797
H          -1.4709635     0.5365280     0.9453200
20
207_C5H9N3O2S_1-0-15-16 (-90,) energy =    -908.7521577
S           2.3676993    -1.8437547    -0.8659305
N           3.6363184    -1.6805281     0.2256694
C           4.5350154    -0.5415763    -0.0038270
H           4.7414859    -0.4542733    -1.0702673
H           5.4729689    -0.7443862     0.5221162
H           4.1129547     0.4049647     0.3638558
C           3.3366705    -1.9614693     1.6312277
H           2.7341010    -2.8670732     1.6999004
H           2.8184781    -1.1274247     2.1304360
H           4.2866680    -2.1358526     2.1455847
O           1.6351165    -3.0532958    -0.4677218
O           2.9154057    -1.6551618    -2.2017908
C           0.3001914     1.3810650    -0.2492200
H           0.1332176     2.4410362    -0.3830627
N           1.3264254     0.7357550    -0.8944811
C           1.2152706    -0.5229882    -0.5276808
N           0.2017486    -0.7143758     0.3713674
H          -0.0982924    -1.6191906     0.7105324
C          -0.4139203     0.5018480     0.5354492
H          -1.2800046     0.6267576     1.1678799
20
207_C5H9N3O2S_1-0-15-16 (-75,) energy =    -908.7494792
S           2.2417316    -1.8948780    -0.1995431
N           3.2412551    -1.3690377     1.0745758
C           4.1716668    -0.2997986     0.6794498
H           3.6327140     0.4780887     0.1333744
H           4.9928119    -0.6697070     0.0510042
H           4.5833462     0.1383198     1.5937887
C           3.8793091    -2.4603594     1.8275589
H           3.1337455    -3.2152675     2.0768720
H           4.2770911    -2.0306446     2.7520984
H           4.7039246    -2.9315799     1.2731379
O           1.4944248    -3.0446068     0.3300896
O           2.9546321    -1.9685234    -1.4731054
C           0.0694987     1.2790688    -0.6834875
H          -0.1553944     2.2055913    -1.1933502
N           1.1046932     0.4752622    -1.0931894
C           1.0728629    -0.5539791    -0.2760049
N           0.0967757    -0.4370644     0.6725245
H          -0.1332876    -1.1419615     1.3603346
C          -0.5704734     0.7317992     0.4073258
H          -1.4190942     1.0535911     0.9921846
20
207_C5H9N3O2S_1-0-15-16 (-60,) energy =    -908.7476001
S           2.2704590    -1.8737984    -0.2439252
N           3.1977819    -1.4177805     1.1155924
C           4.1241803    -0.3098205     0.8346358
H           3.5935197     0.5008978     0.3290886
H           4.9717441    -0.6200579     0.2091537
H           4.4977689     0.0655081     1.7922087
C           3.8353428    -2.5502172     1.8073788
H           3.1005659    -3.3395973     1.9655445
H           4.1865014    -2.1868482     2.7781534
H           4.6923797    -2.9568611     1.2512434
O           1.5279193    -3.0704076     0.1685507
O           3.0436037    -1.8513679    -1.4835230
C          -0.0504569     1.1774214    -0.8356993
H          -0.4053363     1.9877321    -1.4572588
N           0.9482749     0.3382142    -1.2645579
C           1.1172600    -0.5134325    -0.2789655
N           0.2900736    -0.2581641     0.7785743
H           0.2411051    -0.7960217     1.6328770
C          -0.4737512     0.8265606     0.4274081
H          -1.2245399     1.2366657     1.0862107
20
207_C5H9N3O2S_1-0-15-16 (-45,) energy =    -908.7471950
S           2.3220171    -1.8207422    -0.3302328
N           3.1721598    -1.4239512     1.1025404
C           4.1279249    -0.3204915     0.9161829
H           3.6368978     0.5193830     0.4182002
H           5.0017565    -0.6190047     0.3224869
H           4.4572186     0.0094775     1.9062331
C           3.7555232    -2.5888320     1.7895371
H           3.0037589    -3.3729791     1.8764080
H           4.0563851    -2.2650053     2.7907185
H           4.6372656    -2.9876475     1.2678941
O           1.6100049    -3.0688497    -0.0417187
O           3.1558089    -1.6921211    -1.5238748
C          -0.2550991     1.0106406    -0.9095456
H          -0.7873436     1.6775986    -1.5735220
N           0.7244895     0.1724148    -1.3810258
C           1.1532114    -0.4722090    -0.3202354
N           0.4919353    -0.1033969     0.8177860
H           0.6859584    -0.4554708     1.7451083
C          -0.4150655     0.8592739     0.4504445
H          -1.0632167     1.3404418     1.1675153
20
207_C5H9N3O2S_1-0-15-16 (-30,) energy =    -908.7469490
S           2.3710812    -1.7690149    -0.3792758
N           3.1522813    -1.4138835     1.1081222
C           4.1491545    -0.3364762     0.9883252
H           3.7104555     0.5254432     0.4798522
H           5.0425533    -0.6524337     0.4346567
H           4.4381174    -0.0323456     1.9991150
C           3.6641039    -2.6027039     1.8119633
H           2.8891605    -3.3677364     1.8451966
H           3.9162365    -2.2985281     2.8326144
H           4.5630240    -3.0190546     1.3357830
O           1.7114025    -3.0636482    -0.1955327
O           3.2490291    -1.5348813    -1.5249582
C          -0.3882136     0.8994789    -0.8785205
H          -1.0348451     1.4719101    -1.5291177
N           0.5466162     0.0341748    -1.3902442
C           1.1449500    -0.4718833    -0.3368778
N           0.6425804     0.0161240     0.8361519
H           0.9807061    -0.2356862     1.7549272
C          -0.3460454     0.9075088     0.4985878
H          -0.9039356     1.4551370     1.2432379
20
207_C5H9N3O2S_1-0-15-16 (-15,) energy =    -908.7461152
S           2.4230363    -1.7115504    -0.4454454
N           3.1505717    -1.3986684     1.0820281
C           4.1932527    -0.3591080     1.0215052
H           3.8153140     0.5232839     0.5004593
H           5.1005138    -0.7041618     0.5096180
H           4.4443066    -0.0758859     2.0485499
C           3.5795058    -2.6097095     1.8032131
H           2.7734133    -3.3421961     1.8009113
H           3.8001358    -2.3173325     2.8346078
H           4.4792921    -3.0641132     1.3655127
O           1.8427424    -3.0531958    -0.3678656
O           3.3207603    -1.3490943    -1.5418252
C          -0.5173177     0.7733366    -0.8597348
H          -1.2580494     1.2542531    -1.4836003
N           0.3789229    -0.1242633    -1.3851243
C           1.1121839    -0.4997350    -0.3633358
N           0.7463283     0.1143972     0.8001074
H           1.1792730    -0.0585068     1.6970997
C          -0.3094259     0.9380189     0.4920747
H          -0.7938146     1.5524279     1.2359381
20
207_C5H9N3O2S_1-0-15-16 (0,) energy =    -908.7451076
S           2.5230905    -1.5472620    -0.5271506
N           3.2234050    -1.2985204     1.0267187
C           4.4144070    -0.4310471     1.0185494
H           4.2246614     0.4654795     0.4275196
H           5.2992752    -0.9362772     0.6100288
H           4.6188987    -0.1369368     2.0530951
C           3.4023889    -2.5259455     1.8212408
H           2.4973036    -3.1308791     1.7829494
H           3.5901080    -2.2254734     2.8570595
H           4.2474549    -3.1336742     1.4704549
O           2.0905200    -2.9419551    -0.6139829
O           3.3920962    -0.9638096    -1.5491348
C          -0.7238700     0.5521424    -0.7381495
H          -1.5861522     0.8915306    -1.2954207
N           0.1840143    -0.3150237    -1.2939613
C           1.0773074    -0.5102326    -0.3523806
N           0.8039002     0.1922545     0.7853887
H           1.3630698     0.1521216     1.6263762
C          -0.3623708     0.8800373     0.5499872
H          -0.8112938     1.5203646     1.2941926
20
207_C5H9N3O2S_1-0-15-16 (15,) energy =    -908.7461152
S           2.1045798    -2.1629338    -0.0481290
N           3.4468074    -1.0865220    -0.0507810
C           4.4741201    -1.4085504    -1.0565592
H           4.0001662    -1.5812473    -2.0218929
H           5.0676514    -2.2924565    -0.7843200
H           5.1433187    -0.5456594    -1.1309417
C           4.0031585    -0.8558069     1.2941149
H           3.2044583    -0.5965226     1.9925314
H           4.6968103    -0.0115501     1.2297058
H           4.5359183    -1.7324546     1.6838241
O           2.1418824    -3.0502896     1.1139925
O           2.0012426    -2.7096148    -1.4021040
C          -1.0786731    -0.0456722     0.5651915
H          -2.1290107     0.0182672     0.8139387
N          -0.4298963    -1.2551262     0.5290989
C           0.8059725    -0.9605124     0.1996814
N           0.9989361     0.3804322     0.0286884
H           1.8770262     0.8000116    -0.2448662
C          -0.2143977     0.9825217     0.2592829
H          -0.3453086     2.0522601     0.1961192
20
207_C5H9N3O2S_1-0-15-16 (30,) energy =    -908.7469492
S           2.1112011    -2.1416039    -0.1373316
N           3.4622103    -1.0835241    -0.0667608
C           4.5408679    -1.4296726    -1.0086119
H           4.1185898    -1.6038186    -1.9976961
H           5.1045570    -2.3195604    -0.6946556
H           5.2261932    -0.5775051    -1.0526334
C           3.9415954    -0.8582136     1.3073680
H           3.1063138    -0.5818510     1.9553404
H           4.6514120    -0.0255719     1.2832188
H           4.4343532    -1.7433994     1.7294842
O           2.1393343    -3.1326804     0.9373572
O           1.9916401    -2.5592521    -1.5360717
C          -1.0239649    -0.0449411     0.7334255
H          -2.0361468     0.0208774     1.1079440
N          -0.3408580    -1.2355762     0.7393742
C           0.8354761    -0.9483791     0.2317055
N           0.9507104     0.3691264    -0.1109578
H           1.7826988     0.7908555    -0.5006267
C          -0.2433388     0.9645104     0.2137791
H          -0.4194384     2.0186846     0.0610248
20
207_C5H9N3O2S_1-0-15-16 (45,) energy =    -908.7471949
S           2.1379223    -2.0838479    -0.2336390
N           3.5068895    -1.0644713    -0.0907108
C           4.6172979    -1.4317374    -0.9859171
H           4.2345811    -1.5860477    -1.9945277
H           5.1433279    -2.3385165    -0.6547362
H           5.3256020    -0.5974648    -0.9925436
C           3.9283188    -0.8617094     1.3047174
H           3.0691294    -0.5766243     1.9170892
H           4.6518580    -0.0408955     1.3211728
H           4.3866110    -1.7599758     1.7385780
O           2.1423921    -3.1608486     0.7545749
O           2.0030175    -2.3762086    -1.6634258
C          -0.9151249    -0.0089697     0.9357422
H          -1.8572518     0.0652784     1.4609709
N          -0.1813903    -1.1690595     0.9548591
C           0.8851175    -0.9029813     0.2362806
N           0.8760735     0.3704853    -0.2602726
H           1.6131095     0.7861956    -0.8129792
C          -0.2785829     0.9598036     0.1911943
H          -0.5294563     1.9836972    -0.0422924
20
207_C5H9N3O2S_1-0-15-16 (60,) energy =    -908.7476001
S           2.1433427    -2.0424852    -0.3277461
N           3.5206982    -1.0698004    -0.0574973
C           4.6790071    -1.4351276    -0.8895792
H           4.3611093    -1.5460434    -1.9262423
H           5.1628035    -2.3644854    -0.5558280
H           5.4034051    -0.6175761    -0.8217057
C           3.8505396    -0.9232503     1.3688577
H           2.9559602    -0.6454229     1.9318650
H           4.5827439    -0.1154353     1.4621151
H           4.2664483    -1.8435932     1.7999393
O           2.0864653    -3.1955979     0.5677712
O           2.0539807    -2.2041116    -1.7835105
C          -0.7707605     0.0768894     1.1085517
H          -1.5865739     0.2118976     1.8050423
N          -0.0007842    -1.0599594     1.1282707
C           0.8729735    -0.8902342     0.1623553
N           0.7214391     0.3101472    -0.4731603
H           1.2740890     0.6392199    -1.2527825
C          -0.3415377     0.9398478     0.1242894
H          -0.6851713     1.9124032    -0.1949912
20
207_C5H9N3O2S_1-0-15-16 (75,) energy =    -908.7494785
S           2.1565962    -2.0076952    -0.3873293
N           3.5330561    -1.0770021    -0.0145300
C           4.7039699    -1.3752567    -0.8545111
H           4.4042223    -1.3980271    -1.9021524
H           5.1817255    -2.3301453    -0.5911442
H           5.4269908    -0.5672498    -0.7062432
C           3.8337937    -1.0365864     1.4253386
H           2.9266890    -0.8021984     1.9874553
H           4.5624895    -0.2372402     1.5910449
H           4.2442190    -1.9858784     1.7947601
O           2.0713260    -3.2239772     0.4182349
O           2.0932253    -2.0525829    -1.8552341
C          -0.5879222     0.2085373     1.2199742
H          -1.2541187     0.4499285     2.0366117
N           0.2158499    -0.9039847     1.2635714
C           0.8614154    -0.8955454     0.1184772
N           0.5489927     0.1907864    -0.6483679
H           0.8954418     0.3620687    -1.5829511
C          -0.4000368     0.9001456     0.0429712
H          -0.8499928     1.7969907    -0.3557521
20
207_C5H9N3O2S_1-0-15-16 (90,) energy =    -908.7521578
S           2.0752487    -2.2712568    -0.0102618
N           3.6214431    -1.6772014     0.2795640
C           4.1621737    -0.7383245    -0.7055380
H           3.9493372    -1.1036634    -1.7101030
H           5.2475683    -0.7031015    -0.5708308
H           3.7631274     0.2812661    -0.5848699
C           3.9322508    -1.3586923     1.6793801
H           3.5390823    -2.1445343     2.3239111
H           3.5149640    -0.3900199     1.9905260
H           5.0213572    -1.3296699     1.7819001
O           1.7981302    -3.2780632     1.0044386
O           2.0048850    -2.5503629    -1.4508826
C          -0.1834910     0.7150190     1.0067711
H          -0.6758415     1.3198025     1.7558703
N           0.5066642    -0.4209949     1.3519232
C           0.9430684    -0.9087669     0.2104984
N           0.6188131    -0.1110023    -0.8527957
H           0.7904083    -0.3514136    -1.8205185
C          -0.1334638     0.9237991    -0.3543277
H          -0.5575796     1.6851612    -0.9916256
20
207_C5H9N3O2S_1-0-15-16 (105,) energy =    -908.7537432
S           2.0943980    -2.2222584    -0.0556946
N           3.6448777    -1.6761576     0.2823761
C           4.2016776    -0.6857918    -0.6429571
H           3.9832266    -0.9835697    -1.6685048
H           5.2873205    -0.6759716    -0.5067205
H           3.8168972     0.3292904    -0.4578997
C           3.9505762    -1.4407190     1.7005946
H           3.5437494    -2.2568768     2.2968900
H           3.5417993    -0.4864999     2.0612752
H           5.0395513    -1.4322310     1.8084642
O           1.7766371    -3.2569380     0.9199923
O           2.0315925    -2.4595259    -1.5042554
C          -0.0991432     0.8157983     0.9672479
H          -0.5095876     1.4828700     1.7128295
N           0.6908857    -0.2496109     1.3233196
C           0.9915992    -0.8385285     0.1854443
N           0.4646180    -0.1867650    -0.8930535
H           0.5480145    -0.5079632    -1.8489046
C          -0.2588233     0.8704923    -0.4007176
H          -0.8076706     1.5414815    -1.0441798
20
207_C5H9N3O2S_1-0-15-16 (120,) energy =    -908.7544142
S           2.1217729    -2.2023000    -0.0944668
N           3.6695809    -1.6961891     0.2927856
C           4.2548126    -0.6739539    -0.5796504
H           4.0300289    -0.9112713    -1.6196756
H           5.3402132    -0.6996563    -0.4432615
H           3.8939393     0.3380144    -0.3402270
C           3.9672632    -1.5347083     1.7236679
H           3.5265834    -2.3624519     2.2783098
H           3.5859316    -0.5840989     2.1198372
H           5.0548591    -1.5695796     1.8411287
O           1.7561839    -3.2466928     0.8558034
O           2.0781971    -2.4251080    -1.5459896
C          -0.0244042     0.8819929     0.8991813
H          -0.3624080     1.6103649     1.6233844
N           0.8699979    -0.1022641     1.2435257
C           1.0467114    -0.7940905     0.1382829
N           0.3228486    -0.3008291    -0.9076287
H           0.3224178    -0.6970369    -1.8386233
C          -0.3800706     0.7762096    -0.4281620
H          -1.0479976     1.3511127    -1.0516427
20
207_C5H9N3O2S_1-0-15-16 (135,) energy =    -908.7544030
S           2.1577523    -2.1482778    -0.1585206
N           3.6924855    -1.6718311     0.2940608
C           4.3164599    -0.6264389    -0.5231937
H           4.1061306    -0.8144287    -1.5764521
H           5.3984279    -0.6820538    -0.3690820
H           3.9698830     0.3800854    -0.2460465
C           3.9644084    -1.5796194     1.7367371
H           3.4849515    -2.4143892     2.2467593
H           3.6055376    -0.6335136     2.1613059
H           5.0476282    -1.6573615     1.8739352
O           1.7429857    -3.2085468     0.7556316
O           2.1492127    -2.3498866    -1.6133169
C           0.0576148     0.9679464     0.8356080
H          -0.2074731     1.7505006     1.5330736
N           1.0460611     0.0582432     1.1266724
C           1.0995051    -0.7260471     0.0717233
N           0.1935673    -0.3761350    -0.8855219
H           0.0971476    -0.8364353    -1.7812436
C          -0.4856330     0.7165377    -0.4050748
H          -1.2644024     1.2038765    -0.9718765
20
207_C5H9N3O2S_1-0-15-16 (150,) energy =    -908.7538027
S           2.1946533    -2.1064664    -0.2054225
N           3.7039492    -1.6450821     0.3250955
C           4.3773972    -0.5928525    -0.4432314
H           4.1931985    -0.7457153    -1.5071800
H           5.4530324    -0.6805679    -0.2611846
H           4.0442749     0.4114228    -0.1459411
C           3.9321891    -1.6062587     1.7772661
H           3.4075786    -2.4385971     2.2451045
H           3.5927685    -0.6605089     2.2167054
H           5.0070219    -1.7277680     1.9461856
O           1.7294149    -3.1769936     0.6744090
O           2.2410014    -2.2963646    -1.6599100
C           0.1435204     1.0466794     0.7707192
H          -0.0468272     1.8864580     1.4245437
N           1.2076908     0.2024033     0.9859676
C           1.1382123    -0.6797663     0.0128188
N           0.0744648    -0.4622735    -0.8122159
H          -0.1301103    -0.9930948    -1.6485714
C          -0.5717410     0.6543379    -0.3379045
H          -1.4491337     1.0580933    -0.8200377
20
207_C5H9N3O2S_1-0-15-16 (165,) energy =    -908.7528153
S           2.2090488    -2.0757031    -0.2942267
N           3.6834134    -1.6283269     0.3250288
C           4.4243454    -0.5848781    -0.3922500
H           4.2738701    -0.7062107    -1.4654048
H           5.4887014    -0.7185020    -0.1737901
H           4.1141916     0.4214825    -0.0815527
C           3.8477196    -1.6313099     1.7852630
H           3.2730968    -2.4540386     2.2097938
H           3.5241772    -0.6825883     2.2295311
H           4.9085754    -1.7970660     1.9999898
O           1.6964569    -3.1749192     0.5238902
O           2.3286591    -2.2238737    -1.7478917
C           0.2217143     1.1214590     0.6767919
H           0.1159987     2.0231391     1.2637354
N           1.3355930     0.3214166     0.7946253
C           1.1362952    -0.6612489    -0.0562126
N          -0.0576340    -0.5506063    -0.7059017
H          -0.3906772    -1.1668709    -1.4351418
C          -0.6537945     0.6015499    -0.2472205
H          -1.6134027     0.9350281    -0.6122830
20
207_C5H9N3O2S_1-0-15-16 (180,) energy =    -908.7522554
S           2.2407717    -2.0416945    -0.3993911
N           3.6798857    -1.6325523     0.3157544
C           4.5014076    -0.6044031    -0.3347032
H           4.3969116    -0.6905648    -1.4163071
H           5.5466316    -0.7942586    -0.0694625
H           4.2174078     0.4040352    -0.0100744
C           3.7535105    -1.6724622     1.7813059
H           3.1357441    -2.4908334     2.1511608
H           3.4268881    -0.7252995     2.2277630
H           4.7944139    -1.8686161     2.0586713
O           1.6799281    -3.1891056     0.3170184
O           2.4450011    -2.0998914    -1.8483377
C           0.3183225     1.2038236     0.5517035
H           0.2885370     2.1727068     1.0302870
N           1.4598407     0.4343045     0.5695889
C           1.1430032    -0.6571690    -0.0918891
N          -0.1456704    -0.6362535    -0.5375568
H          -0.6033140    -1.3630231    -1.0708505
C          -0.6878919     0.5611949    -0.1290149
H          -1.7076999     0.8344225    -0.3541370
