24
054_C11H9N3O_2-0-19-17 (-165,) energy =    -664.0792596
N           1.5501606    -1.1409911    -0.3540871
H           1.5188401    -0.8131122     0.6060455
C           2.6697717    -0.7467194    -1.0385955
C           5.3439516     1.4101042     1.3837430
H           6.0372472     1.9682139     2.0038221
C           5.6242071     1.1120713     0.0503267
H           6.5555924     1.4327350    -0.4135558
N           4.7820303     0.4259790    -0.7274570
C           3.6403725     0.0339108    -0.1551628
N           3.2689144     0.2647566     1.1144206
C           4.1248763     0.9520634     1.8765863
H           3.8209225     1.1372181     2.9051146
O           2.9150219    -0.9759197    -2.2121574
C          -1.9642236    -3.0259543    -1.7096878
H          -2.8774888    -3.5094167    -2.0445578
C          -1.9085569    -2.4162162    -0.4546155
H          -2.7790433    -2.4193072     0.1959798
C          -0.7388675    -1.7940170    -0.0284764
H          -0.7012383    -1.3150657     0.9478502
C           0.3991227    -1.7803193    -0.8513728
C           0.3474718    -2.3899531    -2.1148773
H           1.2197972    -2.3659799    -2.7529861
C          -0.8342327    -3.0046256    -2.5285503
H          -0.8658107    -3.4740522    -3.5083118
24
054_C11H9N3O_2-0-19-17 (-150,) energy =    -664.0781081
N           1.5942241    -1.2420289    -0.3082153
H           1.5865834    -0.9627711     0.6676577
C           2.6363966    -0.7140558    -1.0277263
C           5.3420067     1.4072249     1.3905809
H           6.0426265     1.9574018     2.0095391
C           5.5599746     1.2116655     0.0268846
H           6.4479278     1.6080866    -0.4628973
N           4.7078806     0.5366789    -0.7497747
C           3.6197163     0.0515438    -0.1454449
N           3.3099497     0.1800225     1.1547137
C           4.1751814     0.8576364     1.9152465
H           3.9215328     0.9598576     2.9686990
O           2.8101783    -0.8327889    -2.2291520
C          -1.9706245    -2.9869479    -1.7215220
H          -2.8951666    -3.4350535    -2.0742877
C          -1.9353750    -2.3149936    -0.4980364
H          -2.8334433    -2.2325349     0.1083292
C          -0.7513818    -1.7347357    -0.0504325
H          -0.7288892    -1.2016862     0.8977339
C           0.4203813    -1.8359280    -0.8158381
C           0.3887298    -2.5059721    -2.0478971
H           1.2867351    -2.5621895    -2.6478511
C          -0.8070328    -3.0729152    -2.4878001
H          -0.8237497    -3.5903345    -3.4433889
24
054_C11H9N3O_2-0-19-17 (-135,) energy =    -664.0763110
N           1.6437950    -1.3351959    -0.2809230
H           1.6679374    -1.1123585     0.7090882
C           2.5989098    -0.6783140    -1.0194263
C           5.3521135     1.3969450     1.3850285
H           6.0637613     1.9366473     2.0006472
C           5.4923479     1.3118144    -0.0000884
H           6.3277473     1.7879416    -0.5108943
N           4.6255399     0.6513851    -0.7729294
C           3.6017935     0.0682679    -0.1428836
N           3.3690108     0.0867306     1.1792469
C           4.2480599     0.7514123     1.9354852
H           4.0570915     0.7642497     3.0069097
O           2.6868228    -0.6862413    -2.2347281
C          -1.9642466    -2.9489650    -1.7437338
H          -2.8978849    -3.3632706    -2.1136068
C          -1.9446210    -2.2061450    -0.5617912
H          -2.8632648    -2.0335998    -0.0074277
C          -0.7487882    -1.6660973    -0.0929680
H          -0.7357853    -1.0721010     0.8181403
C           0.4463828    -1.8891039    -0.7905106
C           0.4296555    -2.6277127    -1.9811182
H           1.3497046    -2.7738725    -2.5321470
C          -0.7758560    -3.1494375    -2.4487463
H          -0.7821616    -3.7214428    -3.3727404
24
054_C11H9N3O_2-0-19-17 (-120,) energy =    -664.0740648
N           1.6762410    -1.3933829    -0.2800797
H           1.7462874    -1.2491008     0.7221943
C           2.5344180    -0.6093832    -1.0165480
C           5.3682501     1.3765956     1.3699461
H           6.0996202     1.8942051     1.9814523
C           5.4135280     1.4154151    -0.0236232
H           6.1913453     1.9705336    -0.5455301
N           4.5208332     0.7843581    -0.7914702
C           3.5684984     0.1032963    -0.1476413
N           3.4291808    -0.0010404     1.1835777
C           4.3322653     0.6372549     1.9343868
H           4.2169022     0.5511591     3.0132473
O           2.5203629    -0.4945756    -2.2284746
C          -1.9558031    -2.9328475    -1.7722494
H          -2.8924330    -3.3285247    -2.1550390
C          -1.9510221    -2.1019047    -0.6504560
H          -2.8844776    -1.8415741    -0.1586947
C          -0.7501651    -1.5842526    -0.1664776
H          -0.7449013    -0.9183032     0.6930940
C           0.4594616    -1.9250379    -0.7835410
C           0.4568850    -2.7493984    -1.9141149
H           1.3951512    -2.9861059    -2.4019931
C          -0.7503238    -3.2465800    -2.4034068
H          -0.7465105    -3.8866113    -3.2815419
24
054_C11H9N3O_2-0-19-17 (-105,) energy =    -664.0718066
N           1.6826402    -1.3912808    -0.2881223
H           1.8247555    -1.3655911     0.7164545
C           2.4421905    -0.4854322    -0.9901430
C           5.4060694     1.3273756     1.3776456
H           6.1695142     1.8014411     1.9852860
C           5.3401456     1.5171231    -0.0026570
H           6.0601683     2.1510624    -0.5177317
N           4.4057193     0.9427064    -0.7652966
C           3.5254504     0.1634561    -0.1302210
N           3.4957717    -0.0897444     1.1880010
C           4.4381073     0.4955566     1.9339326
H           4.4111811     0.2894025     3.0023622
O           2.3115772    -0.2234952    -2.1714562
C          -1.9455842    -2.9492437    -1.7813505
H          -2.8786666    -3.3508787    -2.1668783
C          -1.9608094    -2.0034875    -0.7545623
H          -2.9056884    -1.6607558    -0.3415176
C          -0.7634538    -1.4792417    -0.2673132
H          -0.7692582    -0.7258786     0.5161465
C           0.4571224    -1.9257264    -0.7846851
C           0.4737148    -2.8644943    -1.8199535
H           1.4261059    -3.1865330    -2.2276909
C          -0.7268407    -3.3714223    -2.3163336
H          -0.7089486    -4.1010249    -3.1213187
24
054_C11H9N3O_2-0-19-17 (-90,) energy =    -664.0705372
N           1.5360179    -1.1699938    -0.2392925
H           1.9057644    -1.4673091     0.6567298
C           2.2338528    -0.1857518    -0.8850739
C           5.5682186     1.1416065     1.3083701
H           6.4294292     1.4872186     1.8702556
C           5.2348214     1.6802371     0.0657849
H           5.8338222     2.4712153    -0.3828678
N           4.1781818     1.2664346    -0.6392502
C           3.4448776     0.2959514    -0.0862731
N           3.6728285    -0.2929211     1.0989457
C           4.7347394     0.1351518     1.7888166
H           4.9169856    -0.3439343     2.7491018
O           1.9492910     0.2801376    -1.9737790
C          -1.8880726    -3.0819862    -1.8083496
H          -2.7696425    -3.5776595    -2.2057776
C          -2.0227196    -1.9162197    -1.0519748
H          -3.0083705    -1.5012682    -0.8596116
C          -0.8918807    -1.2787940    -0.5408952
H          -0.9827223    -0.3699873     0.0463529
C           0.3785998    -1.8060367    -0.7881632
C           0.5139214    -2.9715835    -1.5476575
H           1.5069267    -3.3678449    -1.7381064
C          -0.6187579    -3.6080193    -2.0560114
H          -0.5087668    -4.5129358    -2.6474007
24
054_C11H9N3O_2-0-19-17 (-75,) energy =    -664.0719496
N           1.4024192    -1.0291532    -0.1394304
H           1.9680207    -1.5328415     0.5361407
C           2.0360552     0.0433123    -0.7212517
C           5.6467015     1.0314660     1.1919010
H           6.5815536     1.2876155     1.6789819
C           5.0924736     1.8329453     0.1938547
H           5.5842299     2.7492951    -0.1287632
N           3.9436430     1.5313014    -0.4176406
C           3.3417251     0.4075623    -0.0172369
N           3.7824277    -0.4347215     0.9309971
C           4.9344088    -0.1160925     1.5296785
H           5.2900560    -0.8010246     2.2972363
O           1.6181182     0.6726637    -1.6756193
C          -1.8282202    -3.1422899    -1.8457023
H          -2.6631937    -3.6925715    -2.2706137
C          -2.0176684    -1.8489518    -1.3538799
H          -3.0022045    -1.3907524    -1.3917014
C          -0.9512779    -1.1441655    -0.7969652
H          -1.0895078    -0.1437988    -0.4004579
C           0.3210180    -1.7224724    -0.7586720
C           0.5124148    -3.0188530    -1.2474028
H           1.5031455    -3.4645140    -1.2099509
C          -0.5621156    -3.7269293    -1.7862964
H          -0.4064590    -4.7334029    -2.1652813
24
054_C11H9N3O_2-0-19-17 (-60,) energy =    -664.0742881
N           1.4108283    -1.0550212    -0.1318110
H           2.0475139    -1.6087895     0.4323396
C           1.9606967     0.1121174    -0.6108370
C           5.6715583     1.0022100     1.1508863
H           6.6315877     1.2342944     1.5994834
C           5.0221669     1.8944335     0.2977496
H           5.4619635     2.8602903     0.0543782
N           3.8404645     1.6241201    -0.2637268
C           3.3034250     0.4385361     0.0384495
N           3.8379395    -0.4931648     0.8439132
C           5.0204971    -0.2038525     1.3958549
H           5.4517534    -0.9609548     2.0481366
O           1.4474796     0.8442028    -1.4373861
C          -1.8152110    -3.1597944    -1.8471230
H          -2.6491534    -3.7099366    -2.2739867
C          -1.9652402    -1.8168257    -1.4936855
H          -2.9199981    -1.3193233    -1.6411571
C          -0.9036438    -1.1075448    -0.9343612
H          -1.0159910    -0.0673232    -0.6518242
C           0.3339048    -1.7373193    -0.7565390
C           0.4853154    -3.0850020    -1.1029848
H           1.4457831    -3.5728403    -0.9542944
C          -0.5878526    -3.7924813    -1.6439653
H          -0.4600941    -4.8378752    -1.9118099
24
054_C11H9N3O_2-0-19-17 (-45,) energy =    -664.0765481
N           1.4447937    -1.0911019    -0.1862564
H           2.1244461    -1.6661446     0.3013228
C           1.9168443     0.1496665    -0.5424572
C           5.6839798     0.9853270     1.1224678
H           6.6574932     1.2055142     1.5473130
C           4.9697804     1.9322958     0.3885009
H           5.3703135     2.9302934     0.2179757
N           3.7700048     1.6781856    -0.1413192
C           3.2818926     0.4526405     0.0700979
N           3.8809164    -0.5334166     0.7567951
C           5.0798092    -0.2592159     1.2801409
H           5.5630341    -1.0600080     1.8367491
O           1.3310743     0.9570200    -1.2426386
C          -1.8251678    -3.1785359    -1.8320660
H          -2.6683737    -3.7269137    -2.2424478
C          -1.9243635    -1.8056515    -1.5965360
H          -2.8500279    -1.2818723    -1.8197728
C          -0.8526801    -1.0922918    -1.0618198
H          -0.9276648    -0.0278538    -0.8804064
C           0.3500487    -1.7568795    -0.7841436
C           0.4495560    -3.1361978    -1.0114528
H           1.3804486    -3.6515468    -0.7852961
C          -0.6338921    -3.8412814    -1.5320130
H          -0.5425255    -4.9099953    -1.7065526
24
054_C11H9N3O_2-0-19-17 (-30,) energy =    -664.0782581
N           1.4898741    -1.1064911    -0.2722650
H           2.1989516    -1.6883984     0.1623847
C           1.8952270     0.1838473    -0.5021493
C           5.6903961     0.9857628     1.1167233
H           6.6702649     1.1977605     1.5309545
C           4.9231160     1.9725673     0.4979125
H           5.2866753     2.9952036     0.4111261
N           3.7148129     1.7288263    -0.0173357
C           3.2718253     0.4731885     0.0914327
N           3.9234931    -0.5517593     0.6639215
C           5.1302256    -0.2877108     1.1740702
H           5.6558796    -1.1203574     1.6376805
O           1.2559780     1.0410547    -1.0891767
C          -1.8404628    -3.1837779    -1.8015439
H          -2.6967304    -3.7318573    -2.1841987
C          -1.8893261    -1.7941021    -1.6779346
H          -2.7894408    -1.2555941    -1.9625149
C          -0.8010773    -1.0760598    -1.1834852
H          -0.8369443     0.0011486    -1.0941285
C           0.3692185    -1.7610690    -0.8226777
C           0.4185714    -3.1585480    -0.9392656
H           1.3235407    -3.6895659    -0.6514806
C          -0.6798698    -3.8627667    -1.4255976
H          -0.6249446    -4.9446036    -1.5127928
24
054_C11H9N3O_2-0-19-17 (-15,) energy =    -664.0793054
N           1.5255491    -1.1184122    -0.3602995
H           2.2570517    -1.7058372     0.0271735
C           1.8702999     0.2037481    -0.4621387
C           5.6923203     0.9822438     1.1040058
H           6.6785234     1.1893430     1.5054408
C           4.8784135     1.9930604     0.5928640
H           5.2101751     3.0300208     0.5813016
N           3.6616971     1.7561889     0.0945205
C           3.2579426     0.4829218     0.1107461
N           3.9556679    -0.5655120     0.5767286
C           5.1701989    -0.3081957     1.0713497
H           5.7332186    -1.1598944     1.4484021
O           1.1819995     1.0936840    -0.9357503
C          -1.8574350    -3.1915170    -1.7738283
H          -2.7244399    -3.7403933    -2.1301743
C          -1.8626698    -1.7959653    -1.7551532
H          -2.7395749    -1.2527168    -2.0974949
C          -0.7599364    -1.0741605    -1.2988161
H          -0.7624306     0.0068920    -1.2895644
C           0.3799908    -1.7658933    -0.8594235
C           0.3864216    -3.1702149    -0.8733658
H           1.2681721    -3.7064508    -0.5283589
C          -0.7244173    -3.8749922    -1.3275463
H          -0.7015887    -4.9614813    -1.3332092
24
054_C11H9N3O_2-0-19-17 (0,) energy =    -664.0796657
N           1.5020736    -0.9732320    -0.5153751
H           1.5661194    -0.0033830    -0.8078558
C           2.5607209    -1.3977216     0.2427127
C           5.4045318     1.6381454     0.8494183
H           6.1414841     2.4178471     1.0094428
C           5.5637431     0.3552677     1.3730797
H           6.4404163     0.0942592     1.9636769
N           4.6662191    -0.6165184     1.1859243
C           3.5920257    -0.2928034     0.4607082
N           3.3377155     0.9054232    -0.0895467
C           4.2471572     1.8642638     0.1090206
H           4.0379403     2.8341902    -0.3381939
O           2.7111257    -2.5148184     0.7119475
C          -1.9545541    -2.9946728    -1.8214309
H          -2.8512527    -3.5015421    -2.1662834
C          -1.0137237    -3.6720580    -1.0445603
H          -1.1771547    -4.7138914    -0.7814765
C           0.1437172    -3.0386026    -0.5922722
H           0.8720424    -3.5639830     0.0094320
C           0.3653450    -1.6927722    -0.9259796
C          -0.5801192    -1.0087063    -1.7079850
H          -0.4085749     0.0342005    -1.9669442
C          -1.7294578    -1.6562929    -2.1506439
H          -2.4499833    -1.1113099    -2.7546749
24
054_C11H9N3O_2-0-19-17 (15,) energy =    -664.0793049
N           1.4641849    -0.9322598    -0.4206202
H           1.5082898     0.0486972    -0.6775885
C           2.5899704    -1.3907803     0.2115921
C           5.4145016     1.6567703     0.8492588
H           6.1473330     2.4391553     1.0150477
C           5.6186926     0.3500098     1.2920166
H           6.5278081     0.0723670     1.8229647
N           4.7269649    -0.6253889     1.0960912
C           3.6126288    -0.2809968     0.4446905
N           3.3130597     0.9411817    -0.0239778
C           4.2174288     1.9032661     0.1821392
H           3.9714490     2.8926507    -0.1988412
O           2.7953142    -2.5376524     0.5756139
C          -1.9203118    -2.9960848    -1.8435433
H          -2.8005261    -3.5135352    -2.2142267
C          -1.0303751    -3.6419089    -0.9839510
H          -1.2181032    -4.6686606    -0.6809370
C           0.1036631    -2.9932362    -0.4956698
H           0.7957203    -3.4954382     0.1658631
C           0.3584382    -1.6687029    -0.8850666
C          -0.5374909    -1.0151083    -1.7467756
H          -0.3425581     0.0130816    -2.0449353
C          -1.6669511    -1.6757007    -2.2209812
H          -2.3487609    -1.1555459    -2.8885097
24
054_C11H9N3O_2-0-19-17 (30,) energy =    -664.0782582
N           1.4227872    -0.9069786    -0.3382796
H           1.4402819     0.0852574    -0.5516654
C           2.6056268    -1.3888688     0.1626390
C           5.4119746     1.6609706     0.8617118
H           6.1408488     2.4437527     1.0424363
C           5.6621453     0.3302223     1.1963577
H           6.6045484     0.0333499     1.6537790
N           4.7760227    -0.6461146     0.9808674
C           3.6208029    -0.2779508     0.4200157
N           3.2755001     0.9681015     0.0579836
C           4.1749306     1.9308582     0.2823000
H           3.8921701     2.9398361    -0.0119161
O           2.8558257    -2.5571092     0.4091339
C          -1.8956195    -3.0059125    -1.8639157
H          -2.7606993    -3.5325850    -2.2566842
C          -1.0685401    -3.6135917    -0.9175799
H          -1.2913848    -4.6181614    -0.5677943
C           0.0424897    -2.9493418    -0.3992293
H           0.6868844    -3.4230192     0.3287984
C           0.3444646    -1.6558445    -0.8516945
C          -0.4892799    -1.0399521    -1.7975347
H          -0.2591302    -0.0337790    -2.1416745
C          -1.6008688    -1.7123301    -2.2987753
H          -2.2350765    -1.2228732    -3.0330805
24
054_C11H9N3O_2-0-19-17 (45,) energy =    -664.0765493
N           1.3857730    -0.8945281    -0.2521848
H           1.3748520     0.1081702    -0.4096256
C           2.6183060    -1.3858592     0.1058507
C           5.4102288     1.6593052     0.8763147
H           6.1360313     2.4409517     1.0736515
C           5.7037864     0.3120780     1.0868708
H           6.6782486     0.0004288     1.4594379
N           4.8222131    -0.6631625     0.8492050
C           3.6275989    -0.2769799     0.3924226
N           3.2388400     0.9857307     0.1533704
C           4.1344827     1.9470904     0.3983740
H           3.8167763     2.9697996     0.2041704
O           2.9058818    -2.5646418     0.2200593
C          -1.8658705    -3.0211667    -1.8823771
H          -2.7145930    -3.5571761    -2.2976946
C          -1.1141616    -3.5844857    -0.8490117
H          -1.3800856    -4.5612470    -0.4537267
C          -0.0283638    -2.9033320    -0.3010512
H           0.5565674    -3.3393205     0.4985960
C           0.3306353    -1.6491989    -0.8142977
C          -0.4268874    -1.0776407    -1.8456356
H          -0.1525129    -0.0997928    -2.2352948
C          -1.5195886    -1.7617321    -2.3747505
H          -2.0970348    -1.3090454    -3.1763691
24
054_C11H9N3O_2-0-19-17 (60,) energy =    -664.0742875
N           1.3663957    -0.9001219    -0.1858669
H           1.3167290     0.1107455    -0.2630765
C           2.6395209    -1.3813172     0.0172562
C           5.4025822     1.6619487     0.8963472
H           6.1200146     2.4442803     1.1199867
C           5.7432608     0.3107001     0.9563989
H           6.7484806    -0.0036006     1.2325879
N           4.8723108    -0.6649401     0.6837026
C           3.6395677    -0.2754570     0.3460073
N           3.2042215     0.9913743     0.2556488
C           4.0904850     1.9528782     0.5327216
H           3.7348935     2.9789003     0.4586464
O           2.9625850    -2.5546201    -0.0224381
C          -1.8442241    -3.0339837    -1.8938645
H          -2.6823045    -3.5734323    -2.3261998
C          -1.1831726    -3.5435031    -0.7738644
H          -1.5088935    -4.4798407    -0.3288563
C          -0.1148320    -2.8517856    -0.2055228
H           0.3981111    -3.2386249     0.6673105
C           0.3208701    -1.6529804    -0.7824438
C          -0.3438252    -1.1367491    -1.9008751
H          -0.0072150    -0.2007864    -2.3404593
C          -1.4242936    -1.8253977    -2.4515582
H          -1.9329228    -1.4176923    -3.3210457
24
054_C11H9N3O_2-0-19-17 (75,) energy =    -664.0719496
N           1.3753782    -0.9205389    -0.1692800
H           1.2762908     0.0880669    -0.1153895
C           2.6755170    -1.3652883    -0.1249639
C           5.3909582     1.6561198     0.9570320
H           6.0964476     2.4332663     1.2311443
C           5.7757537     0.3206695     0.8381050
H           6.8045565     0.0139757     1.0200558
N           4.9206978    -0.6483192     0.4994797
C           3.6586230    -0.2685262     0.2796538
N           3.1793934     0.9827221     0.3664472
C           4.0510738     1.9380427     0.7048843
H           3.6603755     2.9516525     0.7735312
O           3.0356161    -2.5058240    -0.3510137
C          -1.8477212    -3.0453263    -1.8755322
H          -2.6876966    -3.5827345    -2.3070151
C          -1.2815655    -3.4760735    -0.6736926
H          -1.6824034    -4.3484607    -0.1648132
C          -0.2113114    -2.7819598    -0.1108055
H           0.2282234    -3.1001017     0.8286933
C           0.3183853    -1.6674396    -0.7680220
C          -0.2491573    -1.2321504    -1.9699068
H           0.1642519    -0.3618649    -2.4731559
C          -1.3321625    -1.9190999    -2.5190817
H          -1.7678192    -1.5763015    -3.4537138
24
054_C11H9N3O_2-0-19-17 (90,) energy =    -664.0705362
N           1.4069560    -0.8301699    -0.3616246
H           1.2424174     0.0899249     0.0312356
C           2.7134635    -1.2303277    -0.4363270
C           5.3746048     1.6254422     1.1304780
H           6.0648499     2.3590149     1.5333222
C           5.8135572     0.4066592     0.6136102
H           6.8720011     0.1513262     0.5981775
N           4.9773281    -0.5075531     0.1138370
C           3.6791617    -0.1917769     0.1342502
N           3.1475262     0.9477970     0.6056453
C           4.0007877     1.8495557     1.1012210
H           3.5669961     2.7722076     1.4825563
O           3.0997526    -2.2896753    -0.8966292
C          -1.8613807    -3.0889966    -1.7962207
H          -2.7068007    -3.6648770    -2.1628778
C          -1.4084524    -3.2672150    -0.4876544
H          -1.8991982    -3.9824286     0.1668134
C          -0.3233430    -2.5283145    -0.0155420
H           0.0404683    -2.6594869     0.9990811
C           0.3138053    -1.6096827    -0.8542343
C          -0.1376004    -1.4330013    -2.1652309
H           0.3698125    -0.7208065    -2.8091827
C          -1.2241938    -2.1718749    -2.6341013
H          -1.5706412    -2.0325251    -3.6545268
24
054_C11H9N3O_2-0-19-17 (105,) energy =    -664.0718069
N           1.3825526    -0.6592527    -0.5725615
H           1.2327177     0.0273460     0.1596672
C           2.6977954    -1.0167991    -0.7530352
C           5.3589274     1.4760341     1.3399011
H           6.0497746     2.1134033     1.8814709
C           5.8019619     0.5101340     0.4363733
H           6.8638908     0.3658337     0.2437609
N           4.9653334    -0.2841987    -0.2372640
C           3.6629491    -0.1026011    -0.0002227
N           3.1270515     0.7937840     0.8435958
C           3.9807764     1.5781108     1.5091492
H           3.5438255     2.3032836     2.1932339
O           3.0879752    -1.9367400    -1.4477564
C          -1.8236072    -3.1724552    -1.6792819
H          -2.6484090    -3.8193332    -1.9653447
C          -1.4988187    -3.0057644    -0.3317853
H          -2.0651267    -3.5270193     0.4353286
C          -0.4327552    -2.1843979     0.0352300
H          -0.1605621    -2.0683377     1.0810943
C           0.2922221    -1.4995170    -0.9456755
C          -0.0249045    -1.6737180    -2.2956233
H           0.5589314    -1.1538967    -3.0478985
C          -1.0796939    -2.5107459    -2.6583366
H          -1.3224537    -2.6431539    -3.7091370
24
054_C11H9N3O_2-0-19-17 (120,) energy =    -664.0740648
N           1.3744719    -0.6574010    -0.5666704
H           1.2501885    -0.0746846     0.2550823
C           2.6911474    -0.9154084    -0.8721586
C           5.3654557     1.4238320     1.3740743
H           6.0601744     2.0224962     1.9534937
C           5.7945947     0.5934796     0.3387205
H           6.8489868     0.5202138     0.0771226
N           4.9528802    -0.1505506    -0.3842249
C           3.6597351    -0.0573020    -0.0611643
N           3.1376014     0.7053974     0.9125449
C           3.9959605     1.4424659     1.6243340
H           3.5700868     2.0597289     2.4131817
O           3.0783119    -1.7098605    -1.7094727
C          -1.8229611    -3.1810402    -1.6596534
H          -2.6472873    -3.8312874    -1.9389799
C          -1.5834536    -2.8895843    -0.3155505
H          -2.2160044    -3.3166852     0.4580181
C          -0.5181570    -2.0648699     0.0439110
H          -0.3145987    -1.8541432     1.0910699
C           0.2940061    -1.4975561    -0.9453463
C           0.0626689    -1.7959576    -2.2926517
H           0.7128506    -1.3744457    -3.0502757
C          -0.9925850    -2.6375584    -2.6420482
H          -1.1680106    -2.8657629    -3.6898681
24
054_C11H9N3O_2-0-19-17 (135,) energy =    -664.0763096
N           1.3887465    -0.7086326    -0.5207127
H           1.2844554    -0.1971882     0.3498732
C           2.6938932    -0.8451624    -0.9289528
C           5.3655615     1.4141648     1.4002268
H           6.0601089     1.9928623     1.9997413
C           5.7790515     0.7068239     0.2714204
H           6.8204992     0.7141268    -0.0461340
N           4.9372983    -0.0106171    -0.4779264
C           3.6603426    -0.0170262    -0.0851957
N           3.1540951     0.6238623     0.9804537
C           4.0118074     1.3371406     1.7166456
H           3.5986615     1.8559490     2.5796317
O           3.0765897    -1.5199362    -1.8686609
C          -1.8470597    -3.1630344    -1.6483466
H          -2.6843302    -3.7944680    -1.9319469
C          -1.6710781    -2.7855913    -0.3157816
H          -2.3672872    -3.1250942     0.4464784
C          -0.5910813    -1.9844111     0.0491941
H          -0.4438301    -1.7050749     1.0900508
C           0.3095394    -1.5291172    -0.9236769
C           0.1403895    -1.9118909    -2.2608667
H           0.8540984    -1.5813463    -3.0044342
C          -0.9349543    -2.7273002    -2.6115134
H          -1.0602569    -3.0205494    -3.6503938
24
054_C11H9N3O_2-0-19-17 (150,) energy =    -664.0781081
N           1.4280369    -0.7988477    -0.4786733
H           1.3409906    -0.3465409     0.4257579
C           2.7072308    -0.8072608    -0.9749035
C           5.3674520     1.4070335     1.4100200
H           6.0587990     1.9759382     2.0224512
C           5.7619405     0.8144324     0.2106063
H           6.7848731     0.9055480    -0.1510949
N           4.9237663     0.1110818    -0.5559821
C           3.6697244     0.0018116    -0.1086904
N           3.1832527     0.5278325     1.0269010
C           4.0368084     1.2287560     1.7794568
H           3.6395190     1.6542091     2.6991015
O           3.0756872    -1.3645367    -1.9953180
C          -1.8737221    -3.1374267    -1.6543760
H          -2.7308147    -3.7375105    -1.9464954
C          -1.7418580    -2.6906431    -0.3380883
H          -2.4942785    -2.9429758     0.4043476
C          -0.6390506    -1.9274308     0.0364846
H          -0.5323512    -1.5903148     1.0654074
C           0.3398280    -1.5857552    -0.9090911
C           0.2139773    -2.0361673    -2.2316930
H           0.9814996    -1.7921344    -2.9533940
C          -0.8907852    -2.8084201    -2.5893404
H          -0.9812212    -3.1537832    -3.6158498
24
054_C11H9N3O_2-0-19-17 (165,) energy =    -664.0792592
N           1.4666487    -0.9007437    -0.4335017
H           1.3987133    -0.4943617     0.4941578
C           2.7062015    -0.7773348    -1.0042260
C           5.3661326     1.4031954     1.4117334
H           6.0577829     1.9640319     2.0311835
C           5.7293529     0.9201570     0.1546721
H           6.7262933     1.0927333    -0.2475969
N           4.8908113     0.2277356    -0.6213708
C           3.6684674     0.0180990    -0.1249521
N           3.2133629     0.4353853     1.0674790
C           4.0667630     1.1266271     1.8289427
H           3.6950032     1.4636111     2.7947504
O           3.0480668    -1.2219152    -2.0883930
C          -1.9052347    -3.1032226    -1.6666380
H          -2.7821520    -3.6679363    -1.9699983
C          -1.8085433    -2.5948464    -0.3696212
H          -2.6088003    -2.7615262     0.3465126
C          -0.6829060    -1.8745565     0.0190217
H          -0.6085801    -1.4848849     1.0322559
C           0.3623533    -1.6442943    -0.8902560
C           0.2706766    -2.1552594    -2.1945854
H           1.0826532    -1.9895090    -2.8888074
C          -0.8619870    -2.8792912    -2.5663017
H          -0.9248408    -3.2716027    -3.5779539
24
054_C11H9N3O_2-0-19-17 (180,) energy =    -664.0796656
N           1.5020782    -1.0264386    -0.3947862
H           1.4516574    -0.6583087     0.5497647
C           2.6865840    -0.7662959    -1.0310367
C           5.3533999     1.4007519     1.3901372
H           6.0456540     1.9602044     2.0101629
C           5.6810006     1.0044811     0.0935957
H           6.6500276     1.2461544    -0.3400760
N           4.8408309     0.3154647    -0.6837558
C           3.6529795     0.0204724    -0.1484338
N           3.2340541     0.3497174     1.0841716
C           4.0885395     1.0388812     1.8462650
H           3.7459559     1.3042622     2.8446370
O           2.9851192    -1.1009336    -2.1666413
C          -1.9449668    -3.0711938    -1.6892790
H          -2.8414902    -3.5953911    -2.0076464
C          -1.8695670    -2.5147711    -0.4106113
H          -2.7074470    -2.6019682     0.2759562
C          -0.7203339    -1.8436272    -0.0043212
H          -0.6656474    -1.4115628     0.9929173
C           0.3753490    -1.7183776    -0.8745031