21
195_C8H10O2S_6-11-12-15 (-165,) energy =    -859.4509254
C           0.6958319     0.4960723    -0.7808332
H           1.3804603     0.8141544    -1.5604004
C          -0.4470602     1.2345032    -0.4735415
H          -0.6539866     2.1557361    -1.0107199
C          -1.3279592     0.7847691     0.5135482
H          -2.2180675     1.3623802     0.7473885
C           0.9412798    -0.6890348    -0.0842577
C          -1.0760852    -0.4089113     1.1939422
H          -1.7708092    -0.7623733     1.9505231
C           0.0640478    -1.1562429     0.8960910
H           0.2663367    -2.0982508     1.3955725
S           2.4222697    -1.6434739    -0.4653871
C           3.6839885    -0.9531949     0.6646274
H           3.5664326     0.1345382     0.6279482
H           3.4235247    -1.3053783     1.6668264
C           5.0849656    -1.3805113     0.2318976
H           5.8246317    -0.9437888     0.9109363
H           5.2957525    -1.0398351    -0.7847703
H           5.1906219    -2.4690485     0.2628239
O           2.1798049    -3.0438008    -0.0766785
O           2.8272183    -1.2979102    -1.8400241
21
195_C8H10O2S_6-11-12-15 (-150,) energy =    -859.4495002
C           0.7533838     0.4501629    -0.7999585
H           1.4583243     0.7341704    -1.5744530
C          -0.3694551     1.2299045    -0.5219881
H          -0.5400773     2.1481452    -1.0768310
C          -1.2781299     0.8250667     0.4592778
H          -2.1521687     1.4350773     0.6703159
C           0.9509943    -0.7305834    -0.0812505
C          -1.0743909    -0.3644746     1.1624481
H          -1.7906120    -0.6826849     1.9146502
C           0.0450790    -1.1530026     0.8930987
H           0.2094111    -2.0923925     1.4110492
S           2.4063496    -1.7391509    -0.4260285
C           3.6800525    -1.0821493     0.7238680
H           3.4338479    -0.0280345     0.8868652
H           3.5436220    -1.6267659     1.6619390
C           5.0820551    -1.2365734     0.1400006
H           5.8121191    -0.8127805     0.8377847
H           5.1635232    -0.7167987    -0.8172083
H           5.3332934    -2.2895579    -0.0188196
O           2.1084831    -3.1275544    -0.0336181
O           2.8393872    -1.4152225    -1.7976738
21
195_C8H10O2S_6-11-12-15 (-135,) energy =    -859.4479788
C           0.7936106     0.4025440    -0.8080390
H           1.5109013     0.6457694    -1.5850061
C          -0.3034713     1.2254418    -0.5517376
H          -0.4402754     2.1367439    -1.1270150
C          -1.2292321     0.8727714     0.4335940
H          -2.0830568     1.5161352     0.6276658
C           0.9483267    -0.7682523    -0.0634229
C          -1.0686567    -0.3078895     1.1625792
H          -1.7981751    -0.5862325     1.9178325
C           0.0246694    -1.1390379     0.9153064
H           0.1551829    -2.0720270     1.4540274
S           2.3709798    -1.8330867    -0.3796549
C           3.6684305    -1.2082673     0.7763654
H           3.3144270    -0.2426320     1.1504833
H           3.6791835    -1.9231300     1.6032145
C           5.0238081    -1.0743712     0.0888317
H           5.7537183    -0.6856309     0.8073757
H           4.9677164    -0.3914361    -0.7617691
H           5.3848995    -2.0396480    -0.2770654
O           2.0170835    -3.2005541     0.0394384
O           2.8185336    -1.5536465    -1.7562714
21
195_C8H10O2S_6-11-12-15 (-120,) energy =    -859.4473908
C           0.8331014     0.3701254    -0.8464011
H           1.5505623     0.5686780    -1.6358236
C          -0.2354456     1.2344967    -0.6046946
H          -0.3485977     2.1335102    -1.2039416
C          -1.1625400     0.9388813     0.3975392
H          -1.9941242     1.6137920     0.5806910
C           0.9577071    -0.7837995    -0.0709620
C          -1.0323486    -0.2258775     1.1580956
H          -1.7637022    -0.4603208     1.9263806
C           0.0315160    -1.0979559     0.9252779
H           0.1367409    -2.0197009     1.4882857
S           2.3430933    -1.9018144    -0.3698308
C           3.6594857    -1.3260499     0.7954424
H           3.2257383    -0.5153973     1.3884703
H           3.8260373    -2.1859625     1.4500763
C           4.9309874    -0.8936354     0.0733689
H           5.6800855    -0.5930456     0.8143868
H           4.7450152    -0.0485628    -0.5945087
H           5.3445467    -1.7083679    -0.5260037
O           1.9303066    -3.2453555     0.0732854
O           2.8068445    -1.6654530    -1.7486204
21
195_C8H10O2S_6-11-12-15 (-105,) energy =    -859.4482578
C           0.8651564     0.2975537    -0.8879774
H           1.5722710     0.4451630    -1.6977322
C          -0.1725968     1.2017465    -0.6564861
H          -0.2714602     2.0818050    -1.2855959
C          -1.0861292     0.9697376     0.3741267
H          -1.8938120     1.6749557     0.5499337
C           0.9718048    -0.8312310    -0.0741793
C          -0.9737144    -0.1708759     1.1737525
H          -1.6954560    -0.3555409     1.9643670
C           0.0582626    -1.0826397     0.9515059
H           0.1474327    -1.9872159     1.5443982
S           2.3176087    -1.9987371    -0.3608011
C           3.6515987    -1.4575481     0.7927833
H           3.1729093    -0.8496106     1.5660861
H           3.9805787    -2.3963461     1.2490299
C           4.7985582    -0.7386145     0.0921768
H           5.5881155    -0.5223336     0.8203738
H           4.4736681     0.2082073    -0.3496597
H           5.2173643    -1.3561386    -0.7054399
O           1.8575408    -3.3146237     0.1181869
O           2.7875230    -1.8138520    -1.7448145
21
195_C8H10O2S_6-11-12-15 (-90,) energy =    -859.4499566
C           0.9028734     0.2722961    -0.9274332
H           1.6008779     0.3809107    -1.7511150
C          -0.1008598     1.2145116    -0.6971337
H          -0.1805435     2.0858462    -1.3409155
C          -1.0051409     1.0314192     0.3512269
H          -1.7864735     1.7659683     0.5259902
C           0.9854906    -0.8445763    -0.0942434
C          -0.9177676    -0.0977097     1.1701843
H          -1.6329784    -0.2440777     1.9746075
C           0.0802325    -1.0467856     0.9496675
H           0.1489790    -1.9430527     1.5577413
S           2.2871834    -2.0605237    -0.3784976
C           3.6482160    -1.5439375     0.7389384
H           3.1755375    -1.1527282     1.6447638
H           4.1291293    -2.4951129     0.9909422
C           4.6296404    -0.5699773     0.0982158
H           5.4526638    -0.3712492     0.7933210
H           4.1523780     0.3860896    -0.1409089
H           5.0406684    -0.9868953    -0.8238995
O           1.7955681    -3.3506997     0.1368102
O           2.7462292    -1.9201656    -1.7712228
21
195_C8H10O2S_6-11-12-15 (-75,) energy =    -859.4512481
C           0.9089982     0.2470512    -0.9644840
H           1.5833736     0.3085442    -1.8122240
C          -0.0634431     1.2218971    -0.7356597
H          -0.1425229     2.0719858    -1.4072946
C          -0.9368389     1.0989510     0.3471143
H          -1.6935751     1.8591289     0.5204951
C           0.9913655    -0.8421413    -0.0952547
C          -0.8504879    -0.0027763     1.2027262
H          -1.5419727    -0.1026643     2.0345251
C           0.1156218    -0.9844431     0.9835299
H           0.1797660    -1.8614230     1.6197510
S           2.2461900    -2.1055242    -0.3810567
C           3.6376649    -1.6222816     0.7004495
H           3.2095603    -1.4540012     1.6933399
H           4.2432135    -2.5342993     0.7430864
C           4.4366697    -0.4328309     0.1809999
H           5.2869779    -0.2441171     0.8450758
H           3.8281071     0.4768178     0.1469271
H           4.8161211    -0.6338608    -0.8239588
O           1.7247027    -3.3765652     0.1505214
O           2.6932969    -1.9889170    -1.7801188
21
195_C8H10O2S_6-11-12-15 (-60,) energy =    -859.4511989
C           0.9369073     0.1833087    -1.0131877
H           1.5903891     0.2002821    -1.8789715
C          -0.0123820     1.1832522    -0.7971915
H          -0.0944362     2.0082043    -1.4991323
C          -0.8593693     1.1179056     0.3115620
H          -1.5981243     1.8978685     0.4743491
C           1.0235562    -0.8732734    -0.1048216
C          -0.7697709     0.0485130     1.2065885
H          -1.4406871    -0.0071557     2.0590992
C           0.1732628    -0.9582617     1.0001866
H           0.2376810    -1.8116799     1.6676830
S           2.2390001    -2.1772960    -0.3786767
C           3.6760623    -1.7079130     0.6446393
H           3.3350889    -1.7525722     1.6835385
H           4.3749384    -2.5349973     0.4790156
C           4.2871247    -0.3585087     0.2836513
H           5.1775894    -0.1848839     0.8972204
H           3.5869989     0.4625208     0.4652978
H           4.5855141    -0.3375983    -0.7683986
O           1.7012479    -3.4240421     0.1914155
O           2.6569070    -2.1003460    -1.7900473
21
195_C8H10O2S_6-11-12-15 (-45,) energy =    -859.4498024
C           0.9359025     0.1233985    -1.0785804
H           1.5563051     0.0938944    -1.9679202
C           0.0075410     1.1443896    -0.8712555
H          -0.0921576     1.9387933    -1.6054287
C          -0.7962967     1.1399308     0.2711706
H          -1.5185732     1.9365517     0.4271716
C           1.0450157    -0.8934102    -0.1283980
C          -0.6849093     0.1100035     1.2088925
H          -1.3226371     0.1013317     2.0882350
C           0.2370566    -0.9179497     1.0109432
H           0.3162033    -1.7419822     1.7129332
S           2.2291979    -2.2279401    -0.3937856
C           3.7191408    -1.7655034     0.5626690
H           3.4966708    -2.0213177     1.6028403
H           4.4736255    -2.4646529     0.1873119
C           4.1527293    -0.3111621     0.4098023
H           5.0895754    -0.1542693     0.9551874
H           3.4062219     0.3778568     0.8141535
H           4.3278685    -0.0608352    -0.6411271
O           1.6861903    -3.4505148     0.2213036
O           2.6034804    -2.1920854    -1.8195196
21
195_C8H10O2S_6-11-12-15 (-30,) energy =    -859.4477822
C           0.9306443     0.0842823    -1.1190274
H           1.5257759     0.0142400    -2.0232893
C           0.0205844     1.1243243    -0.9260121
H          -0.0891303     1.8928635    -1.6858759
C          -0.7531806     1.1720579     0.2360189
H          -1.4613092     1.9833660     0.3807147
C           1.0522228    -0.8986733    -0.1354166
C          -0.6302052     0.1754899     1.2076663
H          -1.2451277     0.2070643     2.1026003
C           0.2738988    -0.8710164     1.0240704
H           0.3620750    -1.6698891     1.7534777
S           2.2106328    -2.2592188    -0.3842211
C           3.7614435    -1.7839619     0.4817539
H           3.6817758    -2.2264556     1.4786224
H           4.5273591    -2.3236998    -0.0835745
C           4.0433695    -0.2859046     0.5526912
H           5.0203956    -0.1285327     1.0225387
H           3.2922334     0.2397052     1.1479910
H           4.0752349     0.1653477    -0.4440486
O           1.6743817    -3.4443308     0.3061516
O           2.5193294    -2.2911826    -1.8259054
21
195_C8H10O2S_6-11-12-15 (-15,) energy =    -859.4460387
C           0.9365093     0.0418461    -1.1567681
H           1.5157588    -0.0606555    -2.0684044
C           0.0362542     1.0935813    -0.9825393
H          -0.0800702     1.8388692    -1.7642618
C          -0.7202216     1.1818530     0.1886045
H          -1.4213053     2.0016973     0.3188057
C           1.0665816    -0.9111261    -0.1450877
C          -0.5893173     0.2143769     1.1880797
H          -1.1910528     0.2772319     2.0903144
C           0.3062159    -0.8429540     1.0242742
H           0.4020923    -1.6197497     1.7760896
S           2.2101977    -2.2884026    -0.3722979
C           3.8177144    -1.7817092     0.3837164
H           3.8948270    -2.3869827     1.2908415
H           4.5530789    -2.1355852    -0.3444550
C           3.9798371    -0.2947051     0.6873107
H           4.9824357    -0.1242931     1.0948408
H           3.2511538     0.0516068     1.4251367
H           3.8758098     0.3189612    -0.2126945
O           1.6996722    -3.4236091     0.4156755
O           2.4396290    -2.4101342    -1.8237358
21
195_C8H10O2S_6-11-12-15 (0,) energy =    -859.4453444
C           0.7790840     0.6429809    -0.3728601
H           1.3440548     1.3236319    -1.0014139
C          -0.3052584     1.0865557     0.3848251
H          -0.5835422     2.1364054     0.3643651
C          -1.0373539     0.1812204     1.1571332
H          -1.8828075     0.5310637     1.7431493
C           1.1174170    -0.7112022    -0.3405227
C          -0.6958980    -1.1733878     1.1699066
H          -1.2771987    -1.8771139     1.7589236
C           0.3866210    -1.6288802     0.4164003
H           0.6533207    -2.6804041     0.3910486
S           2.5015631    -1.2972569    -1.3393233
C           4.0210592    -1.1727971    -0.2893969
H           4.4131689    -2.1933520    -0.2843278
H           4.6879552    -0.5366864    -0.8775373
C           3.8265425    -0.6344599     1.1256215
H           4.7958131    -0.6272033     1.6363824
H           3.1432212    -1.2576544     1.7095952
H           3.4391559     0.3883902     1.1239993
O           2.2708543    -2.7304617    -1.5947695
O           2.6651562    -0.3420543    -2.4499166
21
195_C8H10O2S_6-11-12-15 (15,) energy =    -859.4460386
C           0.7646387     0.6482426    -0.4279274
H           1.3152285     1.3097650    -1.0890324
C          -0.3163971     1.1126710     0.3220388
H          -0.6058695     2.1579772     0.2619356
C          -1.0317404     0.2324438     1.1378599
H          -1.8750585     0.5975740     1.7176023
C           1.1181504    -0.7001137    -0.3431702
C          -0.6763182    -1.1170470     1.2022793
H          -1.2448238    -1.8016997     1.8252846
C           0.4041569    -1.5925242     0.4583172
H           0.6824542    -2.6410578     0.4734637
S           2.5014986    -1.3111319    -1.3278077
C           4.0280729    -1.0719969    -0.3154773
H           4.5796494    -2.0018746    -0.4807562
H           4.5564077    -0.2519117    -0.8089402
C           3.8139389    -0.7873278     1.1686899
H           4.7909985    -0.7038267     1.6572661
H           3.2606394    -1.5919230     1.6625506
H           3.2739323     0.1496169     1.3293794
O           2.3065392    -2.7656772    -1.4706933
O           2.6242890    -0.4397856    -2.5092923
21
195_C8H10O2S_6-11-12-15 (30,) energy =    -859.4477824
C           0.7437371     0.6572504    -0.4651122
H           1.2871288     1.2988221    -1.1515043
C          -0.3358032     1.1425593     0.2733696
H          -0.6301709     2.1838894     0.1785107
C          -1.0439370     0.2874210     1.1217051
H          -1.8866383     0.6682353     1.6921893
C           1.1043534    -0.6858685    -0.3350395
C          -0.6818054    -1.0572978     1.2309689
H          -1.2444226    -1.7223289     1.8800146
C           0.3982325    -1.5534650     0.4998899
H           0.6838633    -2.5987236     0.5513536
S           2.4893752    -1.3212956    -1.3008177
C           4.0074367    -0.9616411    -0.3277317
H           4.6922851    -1.7519280    -0.6502029
H           4.3720120    -0.0028740    -0.7068420
C           3.8274706    -0.9352935     1.1873879
H           4.8041897    -0.7849172     1.6601584
H           3.4172643    -1.8790361     1.5604894
H           3.1691823    -0.1216646     1.5028812
O           2.3414820    -2.7881737    -1.3345494
O           2.5748444    -0.5357306    -2.5435011
21
195_C8H10O2S_6-11-12-15 (45,) energy =    -859.4498023
C           0.7203785     0.6552365    -0.5214005
H           1.2550737     1.2728867    -1.2360408
C          -0.3651931     1.1592403     0.1950788
H          -0.6725968     2.1916053     0.0545806
C          -1.0628101     0.3335079     1.0804877
H          -1.9103516     0.7288756     1.6336395
C           1.0979091    -0.6763365    -0.3320084
C          -0.6838630    -1.0003544     1.2493515
H          -1.2380977    -1.6428557     1.9276195
C           0.4025382    -1.5150730     0.5407510
H           0.7023981    -2.5528788     0.6394209
S           2.4932718    -1.3345639    -1.2665866
C           3.9880103    -0.8704742    -0.3182812
H           4.7688540    -1.4806872    -0.7838375
H           4.1791843     0.1795434    -0.5589371
C           3.8911031    -1.1049859     1.1857959
H           4.8544661    -0.8697465     1.6509143
H           3.6556608    -2.1506101     1.4072336
H           3.1291878    -0.4696237     1.6454168
O           2.3886801    -2.8044819    -1.2152975
O           2.5606985    -0.6196140    -2.5519244
21
195_C8H10O2S_6-11-12-15 (60,) energy =    -859.4511992
C           0.6720932     0.6624196    -0.5790383
H           1.1914513     1.2515150    -1.3281775
C          -0.4236425     1.1805667     0.1112422
H          -0.7549994     2.1961558    -0.0857503
C          -1.1009363     0.3902464     1.0436043
H          -1.9563440     0.7965904     1.5762789
C           1.0804324    -0.6475845    -0.3174237
C          -0.6914164    -0.9229402     1.2858221
H          -1.2293721    -1.5392284     2.0005456
C           0.4050673    -1.4512731     0.6029238
H           0.7273279    -2.4754685     0.7579020
S           2.4923870    -1.3228710    -1.2137745
C           3.9571494    -0.7782883    -0.2700613
H           4.7900918    -1.1765830    -0.8595576
H           3.9771023     0.3132322    -0.3458916
C           3.9889499    -1.2681897     1.1733875
H           4.9260266    -0.9538838     1.6452327
H           3.9336699    -2.3598184     1.2130678
H           3.1616226    -0.8543390     1.7577845
O           2.4193903    -2.7912619    -1.1086504
O           2.5589483    -0.6536967    -2.5238740
21
195_C8H10O2S_6-11-12-15 (75,) energy =    -859.4512484
C           0.6229407     0.6636053    -0.6221933
H           1.1399457     1.2221236    -1.3959520
C          -0.4821451     1.2002369     0.0380767
H          -0.8247418     2.2011270    -0.2086727
C          -1.1544075     0.4473341     1.0047617
H          -2.0168334     0.8687856     1.5138414
C           1.0446599    -0.6275571    -0.2966004
C          -0.7307013    -0.8475206     1.3114340
H          -1.2643839    -1.4352449     2.0529156
C           0.3751805    -1.3944957     0.6585734
H           0.7083359    -2.4065615     0.8632769
S           2.4761509    -1.3250582    -1.1433679
C           3.9131734    -0.7107053    -0.1962957
H           4.7506111    -0.8850115    -0.8808405
H           3.7758194     0.3704971    -0.0985602
C           4.1155837    -1.4141517     1.1405766
H           5.0271497    -1.0390215     1.6180272
H           4.2152926    -2.4928486     0.9963123
H           3.2787742    -1.2308535     1.8225754
O           2.4212289    -2.7895353    -0.9910775
O           2.5530708    -0.6981193    -2.4742001
21
195_C8H10O2S_6-11-12-15 (90,) energy =    -859.4499575
C           0.6031183     0.6408044    -0.6906595
H           1.1244391     1.1714485    -1.4808721
C          -0.5200022     1.1880608    -0.0707313
H          -0.8746157     2.1708555    -0.3680876
C          -1.1939646     0.4692936     0.9205107
H          -2.0700461     0.8994389     1.3980299
C           1.0393423    -0.6271077    -0.3003592
C          -0.7541585    -0.8029316     1.2923453
H          -1.2887502    -1.3648236     2.0529620
C           0.3693690    -1.3607616     0.6800821
H           0.7149826    -2.3571108     0.9356143
S           2.4995613    -1.3364104    -1.0865731
C           3.9095691    -0.6731242    -0.1170648
H           4.7089835    -0.6120272    -0.8632544
H           3.6365952     0.3464145     0.1710228
C           4.3074480    -1.5508543     1.0633150
H           5.2081551    -1.1425292     1.5344863
H           4.5150409    -2.5710224     0.7327080
H           3.5186827    -1.5901201     1.8218534
O           2.4515947    -2.7972901    -0.9030157
O           2.6032247    -0.7389380    -2.4297708
21
195_C8H10O2S_6-11-12-15 (105,) energy =    -859.4482577
C           0.6042025     0.6516190    -0.7444812
H           1.1392566     1.1636736    -1.5377234
C          -0.5410231     1.2043259    -0.1711537
H          -0.8996844     2.1724239    -0.5091385
C          -1.2315392     0.5094514     0.8255297
H          -2.1248133     0.9428761     1.2668944
C           1.0457918    -0.5969966    -0.3020396
C          -0.7856731    -0.7443614     1.2492765
H          -1.3334782    -1.2878258     2.0138770
C           0.3597202    -1.3072934     0.6841681
H           0.7105877    -2.2901905     0.9812949
S           2.5336906    -1.3139082    -1.0292085
C           3.9191353    -0.6084108    -0.0360117
H           4.6399986    -0.3012946    -0.8000449
H           3.5319723     0.2909262     0.4518262
C           4.5261321    -1.6054549     0.9441388
H           5.3930629    -1.1485928     1.4341938
H           4.8523461    -2.5111297     0.4281481
H           3.8114035    -1.8978608     1.7193545
O           2.4873614    -2.7695195    -0.8065601
O           2.6641056    -0.7547114    -2.3867420
21
195_C8H10O2S_6-11-12-15 (120,) energy =    -859.4473909
C           0.5766282     0.6343197    -0.7697672
H           1.1221862     1.1117731    -1.5772958
C          -0.5821169     1.2052345    -0.2426068
H          -0.9417219     2.1531191    -0.6328367
C          -1.2834260     0.5541161     0.7754004
H          -2.1867769     1.0011863     1.1812208
C           1.0195591    -0.5877765    -0.2605503
C          -0.8353635    -0.6744772     1.2665238
H          -1.3916121    -1.1849408     2.0476208
C           0.3225044    -1.2554305     0.7477721
H           0.6746916    -2.2202191     1.0978365
S           2.5243145    -1.3268409    -0.9297614
C           3.8864773    -0.6043975     0.0924248
H           4.4961879    -0.0562912    -0.6311544
H           3.4238725     0.1152257     0.7744158
C           4.6871286    -1.6683389     0.8354683
H           5.4926097    -1.1835905     1.3983443
H           5.1325800    -2.3866599     0.1428946
H           4.0600890    -2.2250153     1.5366965
O           2.4583379    -2.7742840    -0.6604489
O           2.6950023    -0.8161097    -2.3015715
21
195_C8H10O2S_6-11-12-15 (135,) energy =    -859.4479789
C           0.5815263     0.6265817    -0.8122824
H           1.1464972     1.0733944    -1.6240166
C          -0.5871781     1.2189055    -0.3321211
H          -0.9352243     2.1529098    -0.7640564
C          -1.3118769     0.6068589     0.6932681
H          -2.2225249     1.0703007     1.0627938
C           1.0098565    -0.5768703    -0.2494768
C          -0.8778074    -0.6040495     1.2388345
H          -1.4523543    -1.0847421     2.0255676
C           0.2890304    -1.2060870     0.7671942
H           0.6307729    -2.1579921     1.1601980
S           2.5271094    -1.3420089    -0.8579444
C           3.8540481    -0.6208315     0.2047360
H           4.3299377     0.1430523    -0.4156141
H           3.3502632    -0.1298248     1.0430987
C           4.8324051    -1.6855963     0.6913170
H           5.5878928    -1.2139211     1.3292467
H           5.3449349    -2.1709551    -0.1440067
H           4.3182070    -2.4590971     1.2660918
O           2.4343267    -2.7812586    -0.5522880
O           2.7512544    -0.8727995    -2.2365013
21
195_C8H10O2S_6-11-12-15 (150,) energy =    -859.4495003
C           0.5975122     0.5976661    -0.8208690
H           1.1879745     1.0148958    -1.6302130
C          -0.5752881     1.2181037    -0.3882537
H          -0.9003907     2.1438277    -0.8545247
C          -1.3338228     0.6441867     0.6345561
H          -2.2475809     1.1289118     0.9672566
C           0.9960791    -0.5945378    -0.2138802
C          -0.9295166    -0.5559175     1.2252208
H          -1.5303898    -1.0067502     2.0099469
C           0.2410057    -1.1852775     0.8012215
H           0.5602877    -2.1296743     1.2296937
S           2.5174043    -1.3950786    -0.7605640
C           3.8107677    -0.6714342     0.3255409
H           4.1349753     0.2483869    -0.1685452
H           3.3136617    -0.4123148     1.2657732
C           4.9504175    -1.6598539     0.5589224
H           5.6891573    -1.2070640     1.2288125
H           5.4525923    -1.9169796    -0.3785754
H           4.5785014    -2.5813316     1.0122882
O           2.3995970    -2.8239407    -0.4166207
O           2.7912410    -0.9691197    -2.1440232
21
195_C8H10O2S_6-11-12-15 (165,) energy =    -859.4509255
C           0.6163422     0.5956000    -0.8179382
H           1.2366482     0.9834876    -1.6195098
C          -0.5538895     1.2482617    -0.4283678
H          -0.8472404     2.1707985    -0.9211951
C          -1.3505143     0.7106705     0.5853544
H          -2.2620469     1.2208009     0.8844757
C           0.9734308    -0.5925472    -0.1778478
C          -0.9872461    -0.4854335     1.2097306
H          -1.6173491    -0.9075811     1.9874391
C           0.1800118    -1.1473239     0.8284749
H           0.4677465    -2.0896244     1.2832904
S           2.4903339    -1.4341711    -0.6681713
C           3.7571245    -0.7249784     0.4443257
H           3.9292464     0.2987340     0.0998452
H           3.3067653    -0.6938771     1.4415892
C           5.0247846    -1.5766681     0.4280454
H           5.7625623    -1.1442585     1.1118836
H           5.4629060    -1.6096530    -0.5739505
H           4.8069599    -2.5992817     0.7457172
O           2.3395792    -2.8567042    -0.3121984
O           2.8163646    -1.0289109    -2.0466751
21
195_C8H10O2S_6-11-12-15 (180,) energy =    -859.4514682
C           0.6497346     0.5431485    -0.8062694
H           1.3014724     0.8949758    -1.5994793
C          -0.5064891     1.2406266    -0.4550734
H          -0.7575363     2.1631717    -0.9707730
C          -1.3436668     0.7479510     0.5490207
H          -2.2441009     1.2938787     0.8170527
C           0.9521508    -0.6442427    -0.1367964
C          -1.0350981    -0.4476338     1.2026077
H          -1.6968172    -0.8338840     1.9726730
C           0.1181547    -1.1542343     0.8601881
H           0.3639433    -2.0971077     1.3380289
S           2.4516082    -1.5433129    -0.5744539
C           3.7114350    -0.8455258     0.5474248
H           3.7362480     0.2308442     0.3512939
H           3.3447096    -1.0129974     1.5648362
C           5.0664460    -1.5077800     0.3058986
H           5.8088642    -1.0805881     0.9878717
H           5.4017309    -1.3417992    -0.7216153
H           5.0090555    -2.5850321     0.4848513
O           2.2562698    -2.9563381    -0.2035921
O           2.8201332    -1.1655249    -1.9506118
