22
272_C7H11N3O_1-0-11-10 (-165,) energy =    -512.8339524
C           2.0188850     0.7487578    -0.9142881
N           1.5322845    -0.5482458    -0.7169375
C           0.2803875    -0.8492754    -1.4090643
H          -0.5857515    -0.3867819    -0.9148664
H           0.1429335    -1.9352959    -1.4233584
H           0.3299563    -0.4704932    -2.4299572
C           1.6206262    -1.1559158     0.6129296
H           1.7237658    -2.2438995     0.5309782
H           0.7168053    -0.9396380     1.2017830
H           2.4768614    -0.7589638     1.1595730
N           3.8253242     2.3091163    -0.3234337
C           3.4060296     1.0571414    -0.4422839
N           4.4669745     0.1674316    -0.3188254
C           4.5277177    -1.2688528    -0.5758644
H           4.5078868    -1.8422566     0.3570781
H           5.4553587    -1.4931332    -1.1080418
H           3.6791156    -1.5615995    -1.1928858
C           5.5826983     0.9309101    -0.0710036
H           6.5547621     0.4768163     0.0587815
C           5.1615239     2.2401368    -0.0680681
H           5.7539249     3.1310190     0.0937918
O           1.4013227     1.5703113    -1.5733276
22
272_C7H11N3O_1-0-11-10 (-150,) energy =    -512.8370392
C           2.0536924     0.6917140    -1.0577757
N           1.5006291    -0.5352184    -0.7031438
C           0.2464464    -0.8851679    -1.3639264
H          -0.6155192    -0.3947468    -0.8894699
H           0.1090932    -1.9700824    -1.3091729
H           0.2871240    -0.5679628    -2.4056286
C           1.6336022    -1.0690705     0.6506872
H           1.7376866    -2.1601971     0.6241863
H           0.7471763    -0.8242494     1.2539781
H           2.5054895    -0.6422734     1.1471637
N           3.7795597     2.2756563    -0.2752941
C           3.4093571     1.0275020    -0.5138991
N           4.4766021     0.1540249    -0.3773681
C           4.5582895    -1.2676016    -0.6941468
H           4.6080455    -1.8720936     0.2181412
H           5.4543083    -1.4543302    -1.2921959
H           3.6787995    -1.5602074    -1.2664702
C           5.5579076     0.9206884    -0.0078752
H           6.5317113     0.4798720     0.1509339
C           5.1020359     2.2159154     0.0591663
H           5.6588114     3.1055297     0.3222818
O           1.5136163     1.4351604    -1.8633525
22
272_C7H11N3O_1-0-11-10 (-135,) energy =    -512.8386403
C           2.1112123     0.6006891    -1.1438047
N           1.4761222    -0.5280877    -0.6508576
C           0.2243214    -0.9132357    -1.2934847
H          -0.6360261    -0.3990942    -0.8417901
H           0.0830909    -1.9939217    -1.1851509
H           0.2680615    -0.6458771    -2.3487087
C           1.6211682    -0.9778960     0.7293428
H           1.6908678    -2.0717316     0.7696465
H           0.7548131    -0.6683061     1.3314810
H           2.5168179    -0.5501864     1.1799462
N           3.7477694     2.2030353    -0.1901755
C           3.4353795     0.9669508    -0.5374640
N           4.5117879     0.1127125    -0.3943779
C           4.6265016    -1.2843601    -0.7930059
H           4.8684542    -1.9120081     0.0712083
H           5.4125539    -1.3973571    -1.5460274
H           3.6785417    -1.6142667    -1.2171398
C           5.5531319     0.8796167     0.0815501
H           6.5298377     0.4540604     0.2619892
C           5.0565799     2.1541736     0.2086959
H           5.5707570     3.0376404     0.5631203
O           1.6630106     1.2456508    -2.0810369
22
272_C7H11N3O_1-0-11-10 (-120,) energy =    -512.8393631
C           2.1433823     0.5444102    -1.2502294
N           1.4164929    -0.4600670    -0.6432312
C           0.1797756    -0.8851106    -1.2874943
H          -0.6880955    -0.3494795    -0.8775245
H           0.0348533    -1.9590122    -1.1254943
H           0.2468277    -0.6724536    -2.3537700
C           1.5344683    -0.7997865     0.7688118
H           1.5535990    -1.8890388     0.8979522
H           0.6801241    -0.4035498     1.3357820
H           2.4474447    -0.3782775     1.1890806
N           3.6786777     2.1671111    -0.1386114
C           3.4308223     0.9495621    -0.5831584
N           4.5269750     0.1246819    -0.4564764
C           4.6879221    -1.2324627    -0.9588846
H           5.1853221    -1.8514785    -0.2063387
H           5.2835288    -1.2395094    -1.8780152
H           3.7051179    -1.6550066    -1.1713455
C           5.5275916     0.8942784     0.1014638
H           6.5107543     0.4890848     0.2924344
C           4.9800233     2.1376452     0.2971882
H           5.4480954     3.0120507     0.7292563
O           1.8074460     1.0559230    -2.3099618
22
272_C7H11N3O_1-0-11-10 (-105,) energy =    -512.8400120
C           2.2126541     0.4137077    -1.2546155
N           1.3744235    -0.4435592    -0.5811411
C           0.1607103    -0.8944755    -1.2489259
H          -0.7181167    -0.3481919    -0.8791896
H           0.0092727    -1.9636681    -1.0599681
H           0.2645788    -0.7146151    -2.3182692
C           1.4302004    -0.6741186     0.8551840
H           1.3998298    -1.7500774     1.0684634
H           0.5741655    -0.2016192     1.3565380
H           2.3450083    -0.2542796     1.2729334
N           3.6404571     2.0443291     0.0114130
C           3.4587619     0.8539481    -0.5262863
N           4.6009581     0.0906113    -0.4876397
C           4.8098436    -1.2152844    -1.0939875
H           5.4535286    -1.8215147    -0.4506328
H           5.2743129    -1.1212628    -2.0814265
H           3.8481842    -1.7200414    -1.2036214
C           5.5670664     0.8696689     0.1186075
H           6.5733224     0.5062904     0.2681576
C           4.9527655     2.0580142     0.4224518
H           5.3768423     2.9208449     0.9183259
O           2.0211465     0.7644911    -2.4127246
22
272_C7H11N3O_1-0-11-10 (-90,) energy =    -512.8419046
C           2.2286507     0.2065444    -1.1496472
N           1.2651118    -0.4774163    -0.4563771
C           0.0944431    -0.9600062    -1.1760814
H          -0.7887528    -0.3501886    -0.9416965
H          -0.1153003    -1.9975002    -0.8896832
H           0.2963318    -0.9027957    -2.2449707
C           1.1869667    -0.5302457     0.9961435
H           1.0854823    -1.5705169     1.3309401
H           0.3154427     0.0327564     1.3566752
H           2.0821283    -0.0948656     1.4387175
N           3.5460616     1.8563392     0.2318585
C           3.4297126     0.6885187    -0.3753291
N           4.6388365     0.0524697    -0.5005570
C           4.9030442    -1.1690847    -1.2469716
H           5.8870778    -1.5513758    -0.9682351
H           4.8739810    -0.9764797    -2.3235792
H           4.1514948    -1.9251057    -1.0044652
C           5.5748858     0.8748573     0.0922789
H           6.6168189     0.5955581     0.1480204
C           4.8809237     1.9708978     0.5401673
H           5.2634598     2.8331088     1.0696377
O           2.2116248     0.3425141    -2.3702930
22
272_C7H11N3O_1-0-11-10 (-75,) energy =    -512.8451505
C           2.3065775     0.0926378    -1.1736926
N           1.2400383    -0.4411953    -0.5031351
C           0.0898114    -0.8993515    -1.2697221
H          -0.7646894    -0.2221088    -1.1354222
H          -0.2060831    -1.8999888    -0.9320695
H           0.3637663    -0.9297057    -2.3234263
C           1.0593600    -0.3863008     0.9402610
H           0.8325463    -1.3888220     1.3253933
H           0.2243434     0.2782378     1.1998128
H           1.9587569    -0.0067880     1.4214861
N           3.5150673     1.7012724     0.3478768
C           3.4731162     0.5840720    -0.3622040
N           4.7274369     0.0672561    -0.5701823
C           5.0788697    -1.0670056    -1.4145174
H           6.1064502    -1.3640983    -1.1952997
H           4.9825952    -0.8002128    -2.4698344
H           4.4165823    -1.9108735    -1.2053638
C           5.6073368     0.9021777     0.0820965
H           6.6684136     0.7007039     0.0998629
C           4.8413435     1.8964384     0.6404044
H           5.1689811     2.7368025     1.2375214
O           2.3971157     0.0934848    -2.4014410
22
272_C7H11N3O_1-0-11-10 (-60,) energy =    -512.8483146
C           2.3396247    -0.0444645    -1.1392351
N           1.2105428    -0.4310676    -0.4707471
C           0.0683535    -0.8962166    -1.2449502
H          -0.7647244    -0.1837442    -1.1739151
H          -0.2732970    -1.8651939    -0.8601681
H           0.3707718    -0.9990133    -2.2860013
C           0.9777725    -0.2687720     0.9572829
H           0.6609156    -1.2270086     1.3893723
H           0.1830375     0.4676953     1.1364708
H           1.8796270     0.0783955     1.4555751
N           3.4809770     1.5530892     0.4472984
C           3.4919320     0.4871613    -0.3424878
N           4.7737750     0.0735454    -0.6123593
C           5.1950278    -0.9893766    -1.5178512
H           6.2296539    -1.2528316    -1.2872517
H           5.1109539    -0.6619035    -2.5561825
H           4.5650911    -1.8705844    -1.3820905
C           5.6103405     0.9159976     0.0814928
H           6.6825278     0.7859117     0.0635990
C           4.7959431     1.8177891     0.7244013
H           5.0836660     2.6365939     1.3700919
O           2.4791354    -0.1881330    -2.3563746
22
272_C7H11N3O_1-0-11-10 (-45,) energy =    -512.8507003
C           2.3669033    -0.1841326    -1.0723811
N           1.1906178    -0.4195639    -0.4148397
C           0.0588411    -0.9220961    -1.1811066
H          -0.7776686    -0.2122242    -1.1359016
H          -0.2814293    -1.8809668    -0.7686862
H           0.3686661    -1.0595218    -2.2156935
C           0.9225411    -0.1643910     0.9936778
H           0.5525427    -1.0834345     1.4676620
H           0.1513603     0.6099657     1.1012446
H           1.8195909     0.1797339     1.5008147
N           3.4824692     1.4158557     0.5385711
C           3.5153850     0.3992533    -0.3155218
N           4.8089917     0.0581504    -0.6367767
C           5.2715464    -0.9473976    -1.5890651
H           6.3159173    -1.1770095    -1.3648443
H           5.1772323    -0.5780806    -2.6120119
H           4.6739147    -1.8548424    -1.4983855
C           5.6239455     0.8978200     0.0820617
H           6.7000460     0.8215371     0.0269608
C           4.7891569     1.7261149     0.7952569
H           5.0584814     2.5216965     1.4768900
O           2.5330457    -0.4776753    -2.2611753
22
272_C7H11N3O_1-0-11-10 (-30,) energy =    -512.8519870
C           2.3826225    -0.2674013    -1.0404439
N           1.1642638    -0.3716683    -0.4253990
C           0.0564550    -0.9267997    -1.1911999
H          -0.7846953    -0.2217271    -1.1988467
H          -0.2877789    -1.8668731    -0.7391167
H           0.3899558    -1.1162509    -2.2097886
C           0.8432816    -0.0301815     0.9544726
H           0.4814439    -0.9243152     1.4809148
H           0.0445153     0.7229660     0.9765143
H           1.7116532     0.3795635     1.4620013
N           3.4958617     1.2994862     0.6183332
C           3.5291626     0.3531364    -0.3144958
N           4.8262184     0.0714505    -0.6872159
C           5.3111504    -0.8679092    -1.6968518
H           6.3846783    -1.0019023    -1.5436712
H           5.1172394    -0.4861193    -2.7001727
H           4.8040775    -1.8274628    -1.5958319
C           5.6341483     0.8809068     0.0704702
H           6.7099124     0.8449276    -0.0199218
C           4.7971118     1.6304712     0.8640950
H           5.0624698     2.3831119     1.5942684
O           2.5752311    -0.6860161    -2.1888029
22
272_C7H11N3O_1-0-11-10 (-15,) energy =    -512.8523756
C           2.4035802    -0.3726203    -1.0074389
N           1.1490606    -0.3655432    -0.4575498
C           0.0729340    -0.9876819    -1.2182738
H          -0.7728056    -0.2932681    -1.2977258
H          -0.2778452    -1.8993688    -0.7149984
H           0.4387371    -1.2429581    -2.2108208
C           0.7618111     0.0931791     0.8714981
H           0.3965099    -0.7562601     1.4660303
H          -0.0562642     0.8202865     0.7840899
H           1.6002783     0.5686642     1.3722983
N           3.5166962     1.1438980     0.7098675
C           3.5443443     0.2822329    -0.3030043
N           4.8407470     0.0743514    -0.7329950
C           5.3417411    -0.7764942    -1.8128666
H           6.4319517    -0.7957828    -1.7411023
H           5.0349577    -0.3855063    -2.7834129
H           4.9458968    -1.7870480    -1.7157654
C           5.6444626     0.8477670     0.0638511
H           6.7168356     0.8610407    -0.0643645
C           4.8114058     1.4999330     0.9430149
H           5.0761280     2.1992441     1.7245856
O           2.6274417    -0.9070970    -2.1019117
22
272_C7H11N3O_1-0-11-10 (0,) energy =    -512.8523327
C           2.4351536    -0.4785665    -0.9086515
N           1.1549082    -0.4018728    -0.4263089
C           0.1071606    -1.0831222    -1.1766425
H          -0.6489459    -0.3598982    -1.5101006
H          -0.3886983    -1.8271410    -0.5393911
H           0.5489193    -1.5755410    -2.0403683
C           0.6821509     0.2946244     0.7647938
H           0.1987234    -0.4225068     1.4423944
H          -0.0671657     1.0455828     0.4788392
H           1.5076522     0.7804325     1.2774827
N           3.5477676     0.9162922     0.9161795
C           3.5648163     0.1923890    -0.2001635
N           4.8509142     0.1043239    -0.7019598
C           5.3512770    -0.5811179    -1.8948279
H           6.4304250    -0.4153508    -1.9411455
H           4.8733454    -0.1872420    -2.7916215
H           5.1383846    -1.6485173    -1.8404658
C           5.6532837     0.8108852     0.1552572
H           6.7164963     0.8975456    -0.0138327
C           4.8334946     1.3029165     1.1439587
H           5.1017498     1.9092617     1.9985382
O           2.6956682    -1.1057236    -1.9448405
22
272_C7H11N3O_1-0-11-10 (15,) energy =    -512.8523755
C           2.4487754    -0.6040731    -0.8479661
N           1.1620600    -0.4395865    -0.4079547
C           0.1098526    -1.1653536    -1.1079408
H          -0.5297801    -0.4712340    -1.6707619
H          -0.5173662    -1.6968563    -0.3815591
H           0.5631974    -1.8747360    -1.7974447
C           0.6819062     0.4865566     0.6112048
H           0.0892661    -0.0629018     1.3543115
H           0.0294271     1.2419881     0.1504921
H           1.5154516     0.9678087     1.1147473
N           3.5985985     0.6546876     1.0442433
C           3.5803928     0.0767940    -0.1536176
N           4.8361003     0.1041647    -0.7290885
C           5.2835226    -0.4185105    -2.0204609
H           6.3051706    -0.0671776    -2.1844077
H           4.6357595    -0.0612967    -2.8205593
H           5.2548258    -1.5085196    -2.0240831
C           5.6608493     0.7359509     0.1651276
H           6.7078788     0.8914643    -0.0496779
C           4.8818651     1.0647122     1.2502222
H           5.1769220     1.5726057     2.1584909
O           2.7136184    -1.3267552    -1.8181254
22
272_C7H11N3O_1-0-11-10 (30,) energy =    -512.8519872
C           2.4680750    -0.7171053    -0.7774113
N           1.1750213    -0.4489084    -0.4177747
C           0.1140173    -1.2091381    -1.0645030
H          -0.4969161    -0.5533330    -1.7000296
H          -0.5394830    -1.6569125    -0.3052730
H           0.5604210    -1.9901231    -1.6772606
C           0.7151105     0.5907085     0.4943478
H           0.0980511     0.1431312     1.2843213
H           0.0946259     1.3160448    -0.0506940
H           1.5576037     1.0923199     0.9616611
N           3.6340639     0.4783658     1.1347210
C           3.5895796     0.0027106    -0.1057241
N           4.8181294     0.1116816    -0.7216770
C           5.2198933    -0.3197514    -2.0594058
H           6.1737922     0.1582498    -2.2949688
H           4.4703767    -0.0240519    -2.7932152
H           5.3217213    -1.4053471    -2.0977731
C           5.6594458     0.6994370     0.1885243
H           6.6900507     0.9123501    -0.0548614
C           4.9136574     0.9135283     1.3245958
H           5.2290672     1.3573456     2.2592664
O           2.7461056    -1.5395141    -1.6591013
22
272_C7H11N3O_1-0-11-10 (45,) energy =    -512.8507003
C           2.4720444    -0.7488809    -0.7039601
N           1.1825175    -0.3707329    -0.4479206
C           0.1031772    -1.1562614    -1.0298112
H          -0.5308896    -0.5193468    -1.6603730
H          -0.5231635    -1.5888503    -0.2384363
H           0.5347701    -1.9528195    -1.6335266
C           0.7586502     0.7273663     0.4096336
H           0.2006047     0.3432245     1.2738886
H           0.0960612     1.3971299    -0.1548094
H           1.6170122     1.2803968     0.7806902
N           3.6728957     0.3828064     1.2135083
C           3.5892240     0.0025557    -0.0562856
N           4.7897769     0.1678765    -0.7076566
C           5.1346953    -0.1957760    -2.0790368
H           6.0355820     0.3533081    -2.3629769
H           4.3211478     0.0694055    -2.7548076
H           5.3068860    -1.2708415    -2.1584054
C           5.6597044     0.7066954     0.2082622
H           6.6756561     0.9573746    -0.0597868
C           4.9546593     0.8278564     1.3828978
H           5.2993415     1.2117334     2.3336544
O           2.7527788    -1.6618928    -1.4879116
22
272_C7H11N3O_1-0-11-10 (60,) energy =    -512.8483146
C           2.4921829    -0.8667202    -0.6024104
N           1.2077092    -0.4112518    -0.4847567
C           0.1292884    -1.2205648    -1.0346334
H          -0.5041174    -0.6052584    -1.6857079
H          -0.4973868    -1.6299737    -0.2306788
H           0.5637154    -2.0376761    -1.6085840
C           0.7907769     0.7473613     0.2921416
H           0.1886017     0.4351287     1.1558454
H           0.1761566     1.4077757    -0.3334979
H           1.6558919     1.2923696     0.6618767
N           3.7209441     0.2506556     1.2983688
C           3.5933717    -0.0593915     0.0147432
N           4.7561506     0.1753062    -0.6780693
C           5.0395616    -0.1357704    -2.0745332
H           5.9215577     0.4290775    -2.3844881
H           4.1943794     0.1518214    -2.7028076
H           5.2135271    -1.2065617    -2.1993262
C           5.6516805     0.6956243     0.2264835
H           6.6443904     0.9981473    -0.0732590
C           4.9958552     0.7323370     1.4341284
H           5.3699056     1.0801172     2.3876856
O           2.7900377    -1.8670505    -1.2597740
22
272_C7H11N3O_1-0-11-10 (75,) energy =    -512.8451505
C           2.5009462    -0.9566833    -0.4886167
N           1.2387248    -0.4290698    -0.5121148
C           0.1530658    -1.2359402    -1.0514559
H          -0.4369547    -0.6392331    -1.7576107
H          -0.5132793    -1.5815180    -0.2493176
H           0.5806284    -2.0980498    -1.5615760
C           0.8419462     0.7960774     0.1665838
H           0.1702858     0.5721356     1.0061990
H           0.3094973     1.4533940    -0.5328827
H           1.7157282     1.3134181     0.5582293
N           3.8073834     0.1154629     1.3840948
C           3.6031289    -0.1178173     0.0964724
N           4.7033040     0.2035618    -0.6585143
C           4.8920393    -0.0442190    -2.0818689
H           5.7607071     0.5210796    -2.4255217
H           4.0132731     0.2869995    -2.6409249
H           5.0419157    -1.1108928    -2.2659530
C           5.6450042     0.7008610     0.2148009
H           6.6030949     1.0589624    -0.1324985
C           5.0729274     0.6398367     1.4622028
H           5.4984964     0.9463909     2.4082590
O           2.7902139    -2.0322753    -1.0130117
22
272_C7H11N3O_1-0-11-10 (90,) energy =    -512.8419046
C           2.4511999    -0.9968054    -0.3639032
N           1.2456157    -0.3674721    -0.5292215
C           0.1265657    -1.1285209    -1.0676094
H          -0.3821432    -0.5422609    -1.8421563
H          -0.6006428    -1.3669949    -0.2794807
H           0.5099775    -2.0547047    -1.4939151
C           0.9179606     0.9314691     0.0400770
H           0.1692407     0.8260840     0.8368325
H           0.5038103     1.5893610    -0.7346570
H           1.8081646     1.3925344     0.4663373
N           3.8949785    -0.0376283     1.4695111
C           3.5900610    -0.1789780     0.1915917
N           4.6034795     0.2489643    -0.6282133
C           4.6708835     0.0990308    -2.0746310
H           5.4673783     0.7372873    -2.4624207
H           3.7239928     0.4060390    -2.5266858
H           4.8687259    -0.9424913    -2.3450221
C           5.6053601     0.7118863     0.1999677
H           6.5193758     1.1277428    -0.1980000
C           5.1458256     0.5326936     1.4806800
H           5.6404028     0.7845354     2.4091468
O           2.6707716    -2.1431005    -0.7467299
22
272_C7H11N3O_1-0-11-10 (105,) energy =    -512.8400120
C           2.5056502    -1.1713298    -0.2195895
N           1.3791521    -0.4640954    -0.5687640
C           0.2184714    -1.2013135    -1.0501120
H          -0.2265614    -0.6758237    -1.9031168
H          -0.5429138    -1.2941435    -0.2632564
H           0.5394149    -2.1979296    -1.3507526
C           1.1370661     0.9197892    -0.1872435
H           0.3570616     0.9777008     0.5845378
H           0.8017881     1.5000735    -1.0561258
H           2.0461769     1.3693842     0.2115484
N           4.0689214    -0.2804866     1.5305425
C           3.6845281    -0.3678530     0.2720677
N           4.5749456     0.2368383    -0.5824981
C           4.5452344     0.2292881    -2.0370500
H           4.9000751     1.1909852    -2.4178059
H           3.5191700     0.0748403    -2.3760580
H           5.1748416    -0.5713986    -2.4396698
C           5.5923526     0.7353845     0.2075466
H           6.4356394     1.2572514    -0.2208016
C           5.2558447     0.4133696     1.4978651
H           5.7957317     0.6454338     2.4060929
O           2.6026539    -2.3850156    -0.3556121
22
272_C7H11N3O_1-0-11-10 (120,) energy =    -512.8393631
C           2.4718024    -1.2331519    -0.0894469
N           1.4253617    -0.5029210    -0.6162432
C           0.2453861    -1.2344516    -1.0609087
H          -0.1901336    -0.7297067    -1.9304296
H          -0.5149087    -1.2845669    -0.2686861
H           0.5389744    -2.2497382    -1.3248442
C           1.2190944     0.9152417    -0.3526871
H           0.4106544     1.0604215     0.3778677
H           0.9415603     1.4376756    -1.2765657
H           2.1264661     1.3660081     0.0489449
N           4.1610738    -0.4503479     1.5717473
C           3.6913663    -0.4610743     0.3385643
N           4.5078437     0.2334408    -0.5269062
C           4.4023314     0.3256864    -1.9762225
H           4.5963963     1.3528547    -2.2989871
H           3.3938010     0.0435485    -2.2809382
H           5.1202657    -0.3434644    -2.4624383
C           5.5637537     0.7009713     0.2289242
H           6.3676178     1.2695394    -0.2158156
C           5.3225801     0.2788231     1.5125621
H           5.9178766     0.4606486     2.3973904
O           2.4553422    -2.4546353    -0.0170658
22
272_C7H11N3O_1-0-11-10 (135,) energy =    -512.8386403
C           2.4377335    -1.1668585     0.0104178
N           1.4663419    -0.4695802    -0.6900641
C           0.2817654    -1.2181819    -1.0958812
H          -0.1430807    -0.7580019    -1.9943826
H          -0.4836603    -1.2211442    -0.3067792
H           0.5650818    -2.2496615    -1.3024559
C           1.2634096     0.9675747    -0.5426768
H           0.4158748     1.1731662     0.1269532
H           1.0476153     1.4250069    -1.5158918
H           2.1508113     1.4388095    -0.1200383
N           4.2445225    -0.4922899     1.5710948
C           3.6925480    -0.4254728     0.3723617
N           4.4800922     0.2895686    -0.5093081
C           4.3032954     0.4777095    -1.9436097
H           4.2331604     1.5434620    -2.1856883
H           3.3862857    -0.0191602    -2.2591558
H           5.1487061     0.0443222    -2.4868812
C           5.5877017     0.6950193     0.2033332
H           6.3820173     1.2600546    -0.2629376
C           5.4143579     0.2128952     1.4779835
H           6.0687222     0.3335667     2.3310685
O           2.3276182    -2.3563756     0.2715467
22
272_C7H11N3O_1-0-11-10 (150,) energy =    -512.8370392
C           2.3916147    -1.1380328     0.1370555
N           1.4965474    -0.5075285    -0.7222028
C           0.3215665    -1.2859648    -1.1036860
H          -0.0918018    -0.8711682    -2.0288746
H          -0.4551365    -1.2602223    -0.3260766
H           0.6122902    -2.3245233    -1.2595483
C           1.2652807     0.9340178    -0.6589728
H           0.3820989     1.1594831    -0.0435027
H           1.0939861     1.3393772    -1.6631813
H           2.1222196     1.4406219    -0.2141804
N           4.3071881    -0.5872047     1.5954572
C           3.6790994    -0.4333159     0.4406004
N           4.4541415     0.2806512    -0.4594970
C           4.2261512     0.5427272    -1.8763174
H           3.9706453     1.5944136    -2.0461048
H           3.4082984    -0.0831727    -2.2313402
H           5.1322522     0.3029276    -2.4392179
C           5.6173707     0.6010790     0.2021247
H           6.4086464     1.1516681    -0.2863090
C           5.4979494     0.0678350     1.4635983
H           6.2095590     0.1153209     2.2772316
O           2.1969678    -2.2693407     0.5561064
22
272_C7H11N3O_1-0-11-10 (165,) energy =    -512.8339549
C           2.3595696    -1.0256895     0.2570457
N           1.5285205    -0.5018530    -0.7391765
C           0.3766900    -1.3332577    -1.0834653
H          -0.0272274    -0.9895938    -2.0412654
H          -0.4145220    -1.2769592    -0.3224004
H           0.6920212    -2.3731879    -1.1680887
C           1.2338637     0.9327626    -0.7531904
H           0.3189124     1.1477495    -0.1814602
H           1.0863325     1.2854660    -1.7803804
H           2.0500316     1.4957493    -0.2986218
N           4.3805813    -0.5991693     1.5913234
C           3.6783627    -0.3573500     0.4929801
N           4.4387365     0.3471040    -0.4333634
C           4.1663559     0.6611016    -1.8331414
H           3.8233547     1.6944405    -1.9513361
H           3.4008564    -0.0144302    -2.2132347
H           5.0849131     0.5265005    -2.4093165
C           5.6559042     0.5767879     0.1619976
H           6.4425019     1.1065476    -0.3562351
C           5.5916359    -0.0041469     1.4070118
H           6.3584207    -0.0322466     2.1699363
O           2.0953586    -2.0743034     0.8239415
22
272_C7H11N3O_1-0-11-10 (180,) energy =    -512.8292558
C           2.3014721    -0.9149503     0.3460521
N           1.5521677    -0.5090196    -0.7750506
C           0.4258123    -1.3888310    -1.0900430
H           0.0441121    -1.1175833    -2.0795916
H          -0.3877390    -1.3032839    -0.3561211
H           0.7648060    -2.4252224    -1.1009689
C           1.1915105     0.9120649    -0.8595949
H           0.2572809     1.1116633    -0.3133134
H           1.0500270     1.2111917    -1.9040979
H           1.9718251     1.5325166    -0.4161636
N           4.4032627    -0.6774000     1.5807725
C           3.6631142    -0.3224236     0.5372025
N           4.4347705     0.3698881    -0.3940546
C           4.1466107     0.7623592    -1.7717058
H           3.7823184     1.7931367    -1.8298694
H           3.3969738     0.0913594    -2.1897088
H           5.0676201     0.6829101    -2.3533757
C           5.6898425     0.4806766     0.1517617
H           6.4877149     0.9838493    -0.3757497
C           5.6428477    -0.1623163     1.3669101
H           6.4415685    -0.2896106     2.0857539
O           1.9423360    -1.8473963     1.0452555
