17
323_C6H9NS_0-4-13-12 (-165,) energy =    -686.9964226
C           1.1520348    -0.3521771    -0.7742950
H           0.8155436     0.1420308     0.1444768
H           0.3637727    -1.0480716    -1.0804371
H           1.2497526     0.4102481    -1.5559290
C           2.4712316    -1.1107234    -0.5710245
C           2.8826442    -1.8785501    -1.8392478
H           2.1034437    -2.5991140    -2.1123479
H           3.8215291    -2.4140939    -1.6815207
H           3.0225720    -1.1898376    -2.6805474
H           2.3110102    -1.8505636     0.2285338
C           5.6723722     0.4117355     0.3926290
H           6.7436257     0.2460182     0.4234838
N           4.8610648    -0.5676100    -0.1311202
C           3.6053857    -0.2218458    -0.1023396
S           3.3347047     1.3844997     0.5918421
C           5.0435965     1.5374371     0.8367770
H           5.4759653     2.4267083     1.2740125
17
323_C6H9NS_0-4-13-12 (-150,) energy =    -686.9964752
C           1.1740087    -0.3123182    -0.8399425
H           0.8280868     0.2372096     0.0430395
H           0.3726962    -0.9986734    -1.1341241
H           1.3196054     0.4083755    -1.6527705
C           2.4650280    -1.0998392    -0.5628770
C           2.8876837    -1.9374264    -1.7794761
H           2.0912114    -2.6427313    -2.0418739
H           3.8028898    -2.4965863    -1.5730146
H           3.0771863    -1.2945304    -2.6464104
H           2.2550980    -1.7949091     0.2656041
C           5.6768549     0.4868453     0.2618567
H           6.7514464     0.3995641     0.1456049
N           4.8634466    -0.4561219    -0.3243642
C           3.6036449    -0.2135290    -0.1020376
S           3.3287698     1.2405528     0.8734103
C           5.0445011     1.4774576     0.9524594
H           5.4762873     2.3175918     1.4785225
17
323_C6H9NS_0-4-13-12 (-135,) energy =    -686.9965760
C           1.1893924    -0.2788215    -0.9046724
H           0.8326417     0.3209165    -0.0599517
H           0.3772667    -0.9520542    -1.2002888
H           1.3905722     0.4009822    -1.7405007
C           2.4463831    -1.0933810    -0.5464722
C           2.8883506    -1.9869766    -1.7137683
H           2.0715642    -2.6612175    -1.9945796
H           3.7633958    -2.5845185    -1.4470489
H           3.1544975    -1.3830011    -2.5876355
H           2.1841229    -1.7471495     0.2998870
C           5.6407479     0.5898264     0.1533216
H           6.6976679     0.6003933    -0.0887066
N           4.8222325    -0.3250481    -0.4711982
C           3.5853501    -0.2106363    -0.0828616
S           3.3389791     1.0722232     1.1164543
C           5.0355841     1.4256171     1.0434114
H           5.4752837     2.2148160     1.6374455
17
323_C6H9NS_0-4-13-12 (-120,) energy =    -686.9966988
C           1.2181252    -0.2463991    -0.9679064
H           0.8585428     0.3947144    -0.1558534
H           0.3918744    -0.8977464    -1.2740734
H           1.4788176     0.3966922    -1.8162305
C           2.4311747    -1.0955898    -0.5360789
C           2.8823445    -2.0394162    -1.6588789
H           2.0542635    -2.6973310    -1.9451956
H           3.7281710    -2.6566753    -1.3442374
H           3.1976101    -1.4733344    -2.5408973
H           2.1147064    -1.7088422     0.3207916
C           5.5955792     0.6847064     0.0552703
H           6.6154735     0.8018051    -0.2937583
N           4.7644962    -0.1990591    -0.5978360
C           3.5772062    -0.2268650    -0.0661364
S           3.3983313     0.8655921     1.3189295
C           5.0507710     1.3520293     1.1110933
H           5.5116908     2.0835776     1.7602584
17
323_C6H9NS_0-4-13-12 (-105,) energy =    -686.9968916
C           1.2570509    -0.2157557    -1.0211493
H           0.9024308     0.4711600    -0.2453754
H           0.4153889    -0.8475710    -1.3270308
H           1.5695064     0.3808176    -1.8856682
C           2.4248232    -1.0906909    -0.5176213
C           2.8858682    -2.0817474    -1.5955250
H           2.0444718    -2.7098834    -1.9087051
H           3.6845698    -2.7304775    -1.2234372
H           3.2711340    -1.5515058    -2.4712086
H           2.0607636    -1.6635735     0.3469907
C           5.5333307     0.8074495    -0.0133519
H           6.4981959     1.0450653    -0.4473583
N           4.6892301    -0.0462396    -0.6890406
C           3.5760374    -0.2333189    -0.0416470
S           3.4916597     0.6500296     1.4915162
C           5.0736426     1.2891169     1.1760016
H           5.5625485     1.9598954     1.8687848
17
323_C6H9NS_0-4-13-12 (-90,) energy =    -686.9971178
C           1.2944549    -0.1903272    -1.0854444
H           0.9374021     0.5331185    -0.3446491
H           0.4428545    -0.8029792    -1.4030927
H           1.6617808     0.3658427    -1.9548985
C           2.4120890    -1.0853212    -0.5090520
C           2.8792545    -2.1290858    -1.5350562
H           2.0296947    -2.7362539    -1.8671571
H           3.6341897    -2.7962853    -1.1067755
H           3.3221269    -1.6396585    -2.4071227
H           2.0025696    -1.6125170     0.3632912
C           5.4598001     0.9173525    -0.0669041
H           6.3545130     1.2772647    -0.5627619
N           4.5888470     0.1096965    -0.7635606
C           3.5712773    -0.2407952    -0.0313155
S           3.6197082     0.4134898     1.6110349
C           5.1173908     1.1984169     1.2227889
H           5.6495608     1.7971940     1.9487665
17
323_C6H9NS_0-4-13-12 (-75,) energy =    -686.9973386
C           1.3207829    -0.1684962    -1.1536345
H           0.9591831     0.5957892    -0.4572250
H           0.4641750    -0.7728136    -1.4738945
H           1.7343157     0.3391749    -2.0313940
C           2.3931450    -1.0627287    -0.4990649
C           2.8727428    -2.1617860    -1.4624786
H           2.0235897    -2.7661369    -1.8012712
H           3.5960058    -2.8262136    -0.9780346
H           3.3564302    -1.7169588    -2.3371331
H           1.9446816    -1.5424163     0.3809517
C           5.3753581     1.0393524    -0.0960297
H           6.1852908     1.5253911    -0.6287662
N           4.4600417     0.2961346    -0.8062124
C           3.5568124    -0.2229035    -0.0247190
S           3.7784638     0.1776377     1.6805180
C           5.1830763     1.1013363     1.2531580
H           5.7736637     1.6165426     1.9977749
17
323_C6H9NS_0-4-13-12 (-60,) energy =    -686.9974145
C           1.3393450    -0.1640732    -1.2434471
H           0.9500190     0.6287361    -0.5956967
H           0.4950222    -0.7739809    -1.5846749
H           1.8037256     0.3074281    -2.1151258
C           2.3658981    -1.0392278    -0.5004938
C           2.8655060    -2.1946673    -1.3885737
H           2.0219287    -2.8066950    -1.7279727
H           3.5617784    -2.8421759    -0.8447681
H           3.3848880    -1.7995180    -2.2673350
H           1.8783638    -1.4694643     0.3840441
C           5.2868200     1.1458797    -0.1000577
H           6.0064632     1.7555532    -0.6352629
N           4.3110725     0.4850997    -0.8108352
C           3.5295177    -0.1996306    -0.0256193
S           3.9522501    -0.0738269     1.6831920
C           5.2658117     0.9740024     1.2533311
H           5.9274567     1.3927940     1.9986177
17
323_C6H9NS_0-4-13-12 (-45,) energy =    -686.9973026
C           1.3711673    -0.1557602    -1.3162023
H           0.9745946     0.6764634    -0.7252132
H           0.5289448    -0.7699353    -1.6544451
H           1.8732286     0.2632961    -2.1930535
C           2.3520974    -1.0069993    -0.4927511
C           2.8580919    -2.2174056    -1.3043530
H           2.0149918    -2.8395729    -1.6262966
H           3.5365132    -2.8407911    -0.7118661
H           3.3977837    -1.8780764    -2.1948580
H           1.8278648    -1.3870336     0.3939972
C           5.2107347     1.2565445    -0.0683690
H           5.8367640     1.9840885    -0.5731138
N           4.1746590     0.6725622    -0.7613558
C           3.5185173    -0.1712737    -0.0177514
S           4.1464234    -0.3060437     1.6276289
C           5.3640182     0.8633482     1.2288321
H           6.0969147     1.1909162     1.9528897
17
323_C6H9NS_0-4-13-12 (-30,) energy =    -686.9970468
C           1.4031527    -0.1537205    -1.3911279
H           1.0116687     0.7161200    -0.8541649
H           0.5569687    -0.7665416    -1.7214186
H           1.9363312     0.2116465    -2.2733253
C           2.3380062    -0.9847890    -0.4995681
C           2.8351143    -2.2470625    -1.2364656
H           1.9845278    -2.8617539    -1.5527937
H           3.4792371    -2.8591338    -0.5960918
H           3.4079059    -1.9678495    -2.1277212
H           1.7777175    -1.3123363     0.3867496
C           5.1181183     1.3681024    -0.0117115
H           5.6484521     2.2053618    -0.4517381
N           4.0377420     0.8361518    -0.6799871
C           3.5086238    -0.1551654    -0.0231698
S           4.3239459    -0.5074047     1.5071413
C           5.4337321     0.7854666     1.1799044
H           6.2269570     1.0407393     1.8687124
17
323_C6H9NS_0-4-13-12 (-15,) energy =    -686.9968213
C           1.4421877    -0.1565597    -1.4598861
H           1.0902209     0.7627292    -0.9826800
H           0.5713573    -0.7527179    -1.7545410
H           1.9910756     0.1289536    -2.3620690
C           2.3348113    -0.9710348    -0.5133327
C           2.8013702    -2.2835383    -1.1784151
H           1.9351440    -2.8802790    -1.4860030
H           3.4071424    -2.8907634    -0.4973580
H           3.4035054    -2.0700359    -2.0688208
H           1.7451738    -1.2400598     0.3746938
C           5.0291814     1.4661579     0.0562561
H           5.4626545     2.3952432    -0.2968139
N           3.9161721     0.9638965    -0.5817422
C           3.5156938    -0.1510972    -0.0436480
S           4.5083880    -0.6709149     1.3291489
C           5.5001037     0.7352505     1.1057937
H           6.3474776     0.9384403     1.7458099
17
323_C6H9NS_0-4-13-12 (0,) energy =    -686.9966560
C           1.4782289    -0.1602699    -1.5258862
H           1.1558582     0.7934281    -1.0999037
H           0.5909437    -0.7400159    -1.8036771
H           2.0474271     0.0602102    -2.4345398
C           2.3286632    -0.9589562    -0.5287831
C           2.7586671    -2.3159895    -1.1211424
H           1.8766036    -2.8916201    -1.4230721
H           3.3212283    -2.9183995    -0.3995832
H           3.3903961    -2.1701184    -2.0047691
H           1.7117607    -1.1668760     0.3584288
C           4.9342009     1.5441577     0.1623279
H           5.2749078     2.5451583    -0.0777357
N           3.7980273     1.0620642    -0.4497993
C           3.5196429    -0.1491834    -0.0643990
S           4.6732865    -0.7964160     1.1166720
C           5.5476004     0.7000580     1.0387428
H           6.4417676     0.8645299     1.6239475
17
323_C6H9NS_0-4-13-12 (15,) energy =    -686.9965354
C           1.5277238    -0.1632344    -1.5881594
H           1.2319088     0.8184951    -1.2111206
H           0.6269050    -0.7261158    -1.8570626
H           2.1199843    -0.0049902    -2.4958953
C           2.3347534    -0.9423454    -0.5396041
C           2.7248562    -2.3394643    -1.0544328
H           1.8270385    -2.8975810    -1.3415437
H           3.2505013    -2.9277053    -0.2938358
H           3.3754032    -2.2644949    -1.9332695
H           1.6927527    -1.0842891     0.3439253
C           4.8638496     1.5974963     0.2823767
H           5.1209399     2.6453130     0.1737907
N           3.7029412     1.1319877    -0.2936694
C           3.5358276    -0.1415635    -0.0829656
S           4.8396610    -0.8749328     0.8689666
C           5.6103472     0.6763775     0.9544002
H           6.5500453     0.8137426     1.4712586
17
323_C6H9NS_0-4-13-12 (30,) energy =    -686.9964512
C           1.5716789    -0.1755100    -1.6589411
H           1.3113943     0.8353764    -1.3375876
H           0.6532294    -0.7146252    -1.9169690
H           2.1867880    -0.0927582    -2.5622036
C           2.3289272    -0.9276579    -0.5525712
C           2.6883080    -2.3568828    -0.9873656
H           1.7814901    -2.8995633    -1.2750136
H           3.1688563    -2.9247361    -0.1822815
H           3.3657699    -2.3484503    -1.8489672
H           1.6589137    -1.0050524     0.3182686
C           4.7880598     1.6277405     0.4107372
H           4.9696499     2.6961654     0.4484852
N           3.6009009     1.1707501    -0.1138333
C           3.5331513    -0.1297089    -0.0962166
S           4.9746611    -0.8996914     0.5882817
C           5.6582328     0.6724567     0.8454770
H           6.6403074     0.7987277     1.2797106
17
323_C6H9NS_0-4-13-12 (45,) energy =    -686.9964225
C           1.6325029    -0.1834580    -1.7252296
H           1.4077723     0.8517137    -1.4579384
H           0.6986261    -0.6934235    -1.9878250
H           2.2780155    -0.1741265    -2.6113526
C           2.3233349    -0.9094050    -0.5565616
C           2.6542090    -2.3652577    -0.9117373
H           1.7427434    -2.8942060    -1.2096063
H           3.0875421    -2.9065649    -0.0628853
H           3.3607185    -2.4193582    -1.7484635
H           1.6180691    -0.9220815     0.2883424
C           4.7267211     1.6332878     0.5547652
H           4.8472933     2.6930941     0.7505398
N           3.5129469     1.1722144     0.1021688
C           3.5262607    -0.1169268    -0.0866427
S           5.0841518    -0.8679817     0.2903146
C           5.7010473     0.6932315     0.7206262
H           6.7198340     0.8265363     1.0569945
17
323_C6H9NS_0-4-13-12 (60,) energy =    -686.9965203
C           1.6987934    -0.1940913    -1.7886109
H           1.4909139     0.8566276    -1.5704226
H           0.7624166    -0.6869014    -2.0747904
H           2.3829885    -0.2384012    -2.6444194
C           2.3147562    -0.8897359    -0.5585941
C           2.6142222    -2.3679777    -0.8365492
H           1.6986143    -2.8847444    -1.1429297
H           3.0063697    -2.8780813     0.0502414
H           3.3437692    -2.4822002    -1.6477657
H           1.5766830    -0.8367429     0.2542797
C           4.6892722     1.6082865     0.6965174
H           4.7740866     2.6291564     1.0525010
N           3.4540325     1.1296059     0.3280732
C           3.5168444    -0.1094554    -0.0707173
S           5.1509613    -0.7848129    -0.0202958
C           5.7299591     0.7338523     0.5815379
H           6.7741836     0.8898293     0.8140203
17
323_C6H9NS_0-4-13-12 (75,) energy =    -686.9967191
C           1.7605580    -0.2135474    -1.8502671
H           1.5500730     0.8461812    -1.6797570
H           0.8350355    -0.7065643    -2.1698672
H           2.4878366    -0.2921567    -2.6671733
C           2.3032008    -0.8729968    -0.5655214
C           2.5674921    -2.3708024    -0.7688992
H           1.6456550    -2.8770076    -1.0747168
H           2.9277154    -2.8470558     0.1491938
H           3.3112437    -2.5433879    -1.5569661
H           1.5401703    -0.7553094     0.2148723
C           4.6714935     1.5439211     0.8440993
H           4.7441454     2.4970084     1.3563101
N           3.4265789     1.0402033     0.5449551
C           3.5068901    -0.1113037    -0.0592835
S           5.1687836    -0.6644965    -0.3098368
C           5.7354439     0.7792651     0.4654085
H           6.7904227     0.9701885     0.6047594
17
323_C6H9NS_0-4-13-12 (90,) energy =    -686.9968868
C           1.8030058    -0.2498608    -1.9133477
H           1.6070809     0.8216104    -1.8075528
H           0.8764695    -0.7412371    -2.2324804
H           2.5490069    -0.3846169    -2.7055592
C           2.2964260    -0.8510755    -0.5810173
C           2.5348696    -2.3638885    -0.7011447
H           1.6114035    -2.8680765    -1.0063335
H           2.8618326    -2.7962820     0.2502604
H           3.2968965    -2.5917552    -1.4569252
H           1.5209928    -0.6752988     0.1745446
C           4.6769080     1.4668067     0.9686163
H           4.7570555     2.3305898     1.6192594
N           3.4318256     0.9362192     0.7156571
C           3.5028653    -0.0983035    -0.0726647
S           5.1541912    -0.4980634    -0.5709695
C           5.7295981     0.8416868     0.3687171
H           6.7830742     1.0760264     0.4335783
17
323_C6H9NS_0-4-13-12 (105,) energy =    -686.9969219
C           1.8294503    -0.2843972    -1.9781193
H           1.6441244     0.7938822    -1.9403884
H           0.9030130    -0.7819564    -2.2874273
H           2.5866006    -0.4724476    -2.7485789
C           2.2879739    -0.8158131    -0.6054797
C           2.5094778    -2.3379660    -0.6381636
H           1.5852814    -2.8482116    -0.9317934
H           2.8137669    -2.7180437     0.3425786
H           3.2845779    -2.6143920    -1.3633839
H           1.5038229    -0.5912843     0.1272124
C           4.6989829     1.3747309     1.0800855
H           4.8039258     2.1299334     1.8510928
N           3.4569614     0.8259208     0.8485890
C           3.4963127    -0.0653737    -0.1003926
S           5.1112366    -0.2957291    -0.7913329
C           5.7164855     0.9068530     0.3030957
H           6.7609605     1.1859642     0.3144006
17
323_C6H9NS_0-4-13-12 (120,) energy =    -686.9969290
C           1.1753685    -0.5696494    -0.4570416
H           1.0018970    -0.3026884     0.5905593
H           0.4023016    -1.2843217    -0.7613831
H           1.0491187     0.3360118    -1.0625041
C           2.5739220    -1.1836188    -0.6523913
C           2.8073820    -1.5912547    -2.1196234
H           2.0440536    -2.3098226    -2.4394518
H           3.7906280    -2.0550292    -2.2494792
H           2.7511899    -0.7233309    -2.7874451
H           2.6504731    -2.0814384    -0.0279024
C           5.4040448     0.4022912     1.0606471
H           6.1577905     0.2534541     1.8258070
N           4.5084236    -0.6117715     0.8008459
C           3.6691621    -0.2809508    -0.1385812
S           3.9328377     1.3479608    -0.7840239
C           5.2617833     1.5348090     0.3158005
H           5.8434165     2.4456048     0.3496389
17
323_C6H9NS_0-4-13-12 (135,) energy =    -686.9969113
C           1.1491542    -0.5334852    -0.5141431
H           0.9274827    -0.2261566     0.5131686
H           0.3834205    -1.2507419    -0.8297655
H           1.0584288     0.3496414    -1.1585930
C           2.5458405    -1.1673276    -0.6223346
C           2.8429711    -1.6288530    -2.0635430
H           2.0873893    -2.3507042    -2.3947720
H           3.8259941    -2.1061463    -2.1270588
H           2.8297464    -0.7818711    -2.7596877
H           2.5853162    -2.0470750     0.0310287
C           5.4892397     0.3552560     0.9485606
H           6.3382705     0.1549061     1.5926474
N           4.6052702    -0.6644695     0.6734260
C           3.6402292    -0.2652192    -0.1049822
S           3.7582824     1.4416451    -0.5630815
C           5.2114244     1.5613008     0.3771872
H           5.7554142     2.4919008     0.4608910
17
323_C6H9NS_0-4-13-12 (150,) energy =    -686.9968171
C           1.1323433    -0.4952432    -0.5748793
H           0.8686366    -0.1439939     0.4282543
H           0.3690075    -1.2118520    -0.8969084
H           1.0843683     0.3616799    -1.2584566
C           2.5188323    -1.1548881    -0.5974810
C           2.8725149    -1.6749854    -2.0064799
H           2.1199171    -2.3961430    -2.3460932
H           3.8490487    -2.1685346    -2.0036801
H           2.9062769    -0.8524082    -2.7307151
H           2.5120615    -2.0141846     0.0845511
C           5.5544332     0.3289884     0.8225114
H           6.4849052     0.0967488     1.3286984
N           4.6882423    -0.6958886     0.5160261
C           3.6164345    -0.2556204    -0.0793113
S           3.6032447     1.4993357    -0.3101803
C           5.1555429     1.5812586     0.4591240
H           5.6641483     2.5237008     0.6074649
17
323_C6H9NS_0-4-13-12 (165,) energy =    -686.9966326
C           1.1340602    -0.4512571    -0.6299914
H           0.8419042    -0.0503756     0.3466082
H           0.3653242    -1.1644033    -0.9460635
H           1.1313531     0.3741782    -1.3527319
C           2.5027985    -1.1424197    -0.5757462
C           2.8906970    -1.7335417    -1.9466734
H           2.1337774    -2.4535285    -2.2790264
H           3.8560512    -2.2437678    -1.8860293
H           2.9662149    -0.9443165    -2.7041816
H           2.4458484    -1.9735055     0.1397648
C           5.6151738     0.3270051     0.6862664
H           6.6128085     0.0874889     1.0375810
N           4.7713642    -0.6967659     0.3234617
C           3.6119280    -0.2483693    -0.0673681
S           3.4813995     1.5151532    -0.0158124
C           5.1099033     1.5889841     0.5740343
H           5.5852102     2.5316751     0.8068388
17
323_C6H9NS_0-4-13-12 (180,) energy =    -686.9964606
C           1.1520391    -0.3973035    -0.6937716
H           0.8362863     0.0485833     0.2561654
H           0.3743570    -1.1026422    -1.0050363
H           1.1981115     0.3985958    -1.4469645
C           2.4976034    -1.1229863    -0.5669194
C           2.8986814    -1.8036741    -1.8897185
H           2.1375291    -2.5342978    -2.1867887
H           3.8575515    -2.3170925    -1.7828705
H           2.9939363    -1.0638792    -2.6934127
H           2.3899385    -1.9113254     0.1922305
C           5.6663306     0.3614824     0.5357282
H           6.7118080     0.1433713     0.7240688
N           4.8435168    -0.6480908     0.0950228
C           3.6215872    -0.2314446    -0.0815661
S           3.4010923     1.4839025     0.2909633
C           5.0814959     1.5825105     0.7030540
H           5.5298575     2.5083679     1.0355883
