25
430_C11H10N2O2_1-0-20-18 (-165,) energy =    -685.1499135
C           2.5230957    -1.4767935    -0.4658679
C           1.2469521    -0.9827387    -0.1496979
H           1.1950156     0.0137351     0.2730378
C           0.0950022    -1.7326816    -0.3568298
H          -0.8759295    -1.3191339    -0.1023434
C           0.2014988    -3.0136747    -0.8957798
H          -0.6867696    -3.6156949    -1.0664293
C           1.4511706    -3.5362984    -1.2251726
H           1.5178069    -4.5329314    -1.6439444
C           2.6101357    -2.7796711    -1.0193446
O           3.8573788    -3.2539776    -1.3312078
C           3.9989945    -4.5728322    -1.8503908
H           5.0705045    -4.7177973    -1.9937634
H           3.4828102    -4.6798604    -2.8117814
H           3.6197037    -5.3181758    -1.1418742
C           5.8120762     1.1093615     0.1858190
H           6.6355860     1.7908150     0.3633102
C           6.0598060    -0.0674241    -0.6169671
N           4.8924714    -0.8556031    -0.7657938
H           5.0038415    -1.7172412    -1.2909628
C           3.6795509    -0.5765897    -0.2111354
N           3.4875736     0.5023855     0.5168945
C           4.5646118     1.3240496     0.6976497
H           4.3666783     2.2046335     1.3059960
O           7.1071908    -0.4221363    -1.1431878
25
430_C11H10N2O2_1-0-20-18 (-150,) energy =    -685.1486440
C           2.5247469    -1.4839716    -0.4494444
C           1.2484992    -0.9571969    -0.2024450
H           1.1936349     0.0460016     0.2048293
C           0.0938028    -1.6929487    -0.4501990
H          -0.8810651    -1.2595189    -0.2496176
C           0.2037902    -2.9849433    -0.9611337
H          -0.6866061    -3.5748951    -1.1605212
C           1.4576175    -3.5346243    -1.2293509
H           1.5250968    -4.5388025    -1.6300284
C           2.6172076    -2.7906094    -0.9878754
O           3.8744172    -3.2684151    -1.2472518
C           4.0284281    -4.6028631    -1.7200523
H           5.1038136    -4.7574879    -1.8174182
H           3.5490761    -4.7389811    -2.6970485
H           3.6175297    -5.3244488    -1.0043686
C           5.8186150     1.0918354     0.1791154
H           6.6446021     1.7721806     0.3495820
C           5.9926632     0.0392483    -0.7982793
N           4.8281457    -0.7578820    -0.9194190
H           4.9047368    -1.5559165    -1.5419263
C           3.6920621    -0.6043444    -0.1813513
N           3.5644916     0.3609434     0.7011077
C           4.6401254     1.1919910     0.8603360
H           4.5009508     1.9767453     1.6014674
O           6.9780850    -0.2073921    -1.4816809
25
430_C11H10N2O2_1-0-20-18 (-135,) energy =    -685.1461870
C           2.5249993    -1.4896047    -0.4367456
C           1.2519510    -0.9320113    -0.2662944
H           1.1912217     0.0806536     0.1175485
C           0.0981430    -1.6576050    -0.5543271
H          -0.8790929    -1.2067264    -0.4123778
C           0.2136762    -2.9626982    -1.0287620
H          -0.6759434    -3.5440280    -1.2552569
C           1.4700056    -3.5382377    -1.2277320
H           1.5399611    -4.5521393    -1.6032323
C           2.6266948    -2.8027251    -0.9509888
O           3.8932331    -3.2802925    -1.1514042
C           4.0612516    -4.6248925    -1.5869659
H           5.1390522    -4.7831505    -1.6445224
H           3.6151173    -4.7851570    -2.5763165
H           3.6250835    -5.3303918    -0.8696750
C           5.8246958     1.0725108     0.1828477
H           6.6535892     1.7504490     0.3490493
C           5.9025551     0.1683888    -0.9452678
N           4.7428783    -0.6392014    -1.0444970
H           4.7667415    -1.3476577    -1.7703835
C           3.7053448    -0.6308825    -0.1587482
N           3.6610409     0.2010335     0.8547065
C           4.7346631     1.0407638     1.0027028
H           4.6701628     1.7134656     1.8556950
O           6.8063108     0.0494324    -1.7618733
25
430_C11H10N2O2_1-0-20-18 (-120,) energy =    -685.1430947
C           2.5109146    -1.4865362    -0.4489560
C           1.2428890    -0.9072276    -0.3491005
H           1.1728437     0.1188656    -0.0022799
C           0.0936585    -1.6328147    -0.6619459
H          -0.8840774    -1.1692736    -0.5750002
C           0.2160266    -2.9539218    -1.0873792
H          -0.6700544    -3.5339979    -1.3305116
C           1.4728829    -3.5502268    -1.2134808
H           1.5472660    -4.5777066    -1.5496903
C           2.6239835    -2.8152410    -0.9122108
O           3.8963468    -3.2970598    -1.0362196
C           4.0785573    -4.6534109    -1.4232502
H           5.1572252    -4.8165541    -1.4283639
H           3.6765624    -4.8430150    -2.4266306
H           3.6084061    -5.3380496    -0.7066501
C           5.8496700     1.0175244     0.1910534
H           6.6923429     1.6766375     0.3640306
C           5.7886331     0.3136944    -1.0735236
N           4.6230942    -0.4874643    -1.1619298
H           4.5487148    -1.0484951    -2.0037679
C           3.7070193    -0.6489372    -0.1630107
N           3.7840133     0.0036540     0.9693557
C           4.8692774     0.8315668     1.1204601
H           4.9095306     1.3560700     2.0729770
O           6.5830415     0.3518706    -2.0031385
25
430_C11H10N2O2_1-0-20-18 (-105,) energy =    -685.1405381
C           2.4998674    -1.4681546    -0.4957341
C           1.2346168    -0.8796816    -0.4666618
H           1.1516034     0.1632028    -0.1751110
C           0.0935821    -1.6172944    -0.7870892
H          -0.8853043    -1.1490507    -0.7565968
C           0.2267669    -2.9571645    -1.1441400
H          -0.6527059    -3.5451470    -1.3923192
C           1.4842626    -3.5641522    -1.1916186
H           1.5652670    -4.6076528    -1.4727831
C           2.6263743    -2.8192564    -0.8788951
O           3.9004538    -3.3050912    -0.9151537
C           4.0979642    -4.6739040    -1.2427326
H           5.1754091    -4.8376468    -1.1923005
H           3.7424298    -4.9004894    -2.2561528
H           3.5945287    -5.3330452    -0.5244509
C           5.8917264     0.9506654     0.2021635
H           6.7540330     1.5796486     0.3902706
C           5.6601497     0.5104609    -1.1585966
N           4.4914711    -0.2868134    -1.2483716
H           4.2830781    -0.6469523    -2.1737678
C           3.7077005    -0.6476780    -0.1905862
N           3.9340614    -0.2298039     1.0266648
C           5.0387929     0.5711798     1.1957012
H           5.2061353     0.9016052     2.2187577
O           6.3221210     0.7517843    -2.1583679
25
430_C11H10N2O2_1-0-20-18 (-90,) energy =    -685.1392601
C           2.5022051    -1.4547811    -0.5692764
C           1.2428546    -0.8554909    -0.6045294
H           1.1584834     0.2037067    -0.3774939
C           0.1027232    -1.6018178    -0.9106069
H          -0.8724331    -1.1253050    -0.9302603
C           0.2329876    -2.9611088    -1.1845497
H          -0.6450607    -3.5556991    -1.4218524
C           1.4853071    -3.5803132    -1.1612185
H           1.5637103    -4.6390134    -1.3793215
C           2.6259465    -2.8288305    -0.8580906
O           3.8940105    -3.3251495    -0.8254360
C           4.0882479    -4.7115850    -1.0674297
H           5.1620197    -4.8806301    -0.9740423
H           3.7620141    -4.9934850    -2.0768921
H           3.5570641    -5.3246998    -0.3285467
C           5.9243901     0.9017711     0.1983367
H           6.7989887     1.5076883     0.4046460
C           5.5225300     0.7444317    -1.1845584
N           4.3633238    -0.0660007    -1.2920853
H           4.0332290    -0.2287431    -2.2378236
C           3.7155331    -0.6474531    -0.2404788
N           4.0958981    -0.4858857     0.9978585
C           5.2105396     0.2962080     1.1896990
H           5.5082626     0.4128131     2.2296936
O           6.0456142     1.2107802    -2.1869143
25
430_C11H10N2O2_1-0-20-18 (-75,) energy =    -685.1393347
C           2.5376962    -1.4592548    -0.6389476
C           1.2895490    -0.8413560    -0.7368157
H           1.2186883     0.2302245    -0.5693155
C           0.1413934    -1.5818063    -1.0258573
H          -0.8237456    -1.0893776    -1.0917248
C           0.2516375    -2.9564611    -1.2190034
H          -0.6319521    -3.5480642    -1.4428636
C           1.4911288    -3.5952498    -1.1316632
H           1.5534396    -4.6652660    -1.2916571
C           2.6407706    -2.8514532    -0.8423449
O           3.8945797    -3.3716789    -0.7600538
C           4.0615765    -4.7737087    -0.9150286
H           5.1287814    -4.9600600    -0.7861418
H           3.7519110    -5.1082768    -1.9136849
H           3.5001590    -5.3302434    -0.1540609
C           5.9396966     0.9059296     0.1831988
H           6.8100240     1.5126618     0.4045230
C           5.3815108     0.9863506    -1.1506331
N           4.2538521     0.1356128    -1.2860321
H           3.8223717     0.1287619    -2.2046101
C           3.7477430    -0.6565555    -0.2951654
N           4.2705416    -0.7090197     0.9002320
C           5.3732273     0.0829210     1.1117738
H           5.7914719     0.0184272     2.1141795
O           5.7618203     1.6621945    -2.0964115
25
430_C11H10N2O2_1-0-20-18 (-60,) energy =    -685.1400206
C           2.5843506    -1.4865758    -0.6865336
C           1.3533309    -0.8442024    -0.8507581
H           1.3050133     0.2350907    -0.7298756
C           0.1929368    -1.5651067    -1.1358940
H          -0.7560025    -1.0504263    -1.2491086
C           0.2705125    -2.9499176    -1.2609015
H          -0.6222160    -3.5292258    -1.4806265
C           1.4897640    -3.6143785    -1.1104266
H           1.5270688    -4.6915490    -1.2222070
C           2.6540759    -2.8913514    -0.8240467
O           3.8857260    -3.4477931    -0.6970355
C           4.0105326    -4.8591856    -0.7920467
H           5.0690143    -5.0722575    -0.6357388
H           3.7079164    -5.2254570    -1.7817676
H           3.4193210    -5.3666826    -0.0193873
C           5.9340826     0.9335677     0.1783453
H           6.7886817     1.5573144     0.4130421
C           5.2339392     1.1850152    -1.0636284
N           4.1500153     0.2851027    -1.2324317
H           3.6333988     0.3870176    -2.0999856
C           3.7901078    -0.6860595    -0.3395131
N           4.4418099    -0.8898003     0.7748247
C           5.5165565    -0.0679833     1.0056906
H           6.0434133    -0.2627325     1.9376710
O           5.4737452     2.0277614    -1.9172671
25
430_C11H10N2O2_1-0-20-18 (-45,) energy =    -685.1402965
C           2.6176890    -1.5035343    -0.7161784
C           1.4028590    -0.8491119    -0.9577508
H           1.3651512     0.2340371    -0.8739883
C           0.2378404    -1.5559011    -1.2527614
H          -0.6952183    -1.0269514    -1.4192835
C           0.2894264    -2.9460879    -1.3165977
H          -0.6075060    -3.5166344    -1.5418981
C           1.4888573    -3.6251391    -1.0966299
H           1.5071333    -4.7062252    -1.1651693
C           2.6610762    -2.9170638    -0.8011002
O           3.8701895    -3.5030964    -0.6252722
C           3.9629318    -4.9184080    -0.6901772
H           5.0127231    -5.1518429    -0.5068508
H           3.6726651    -5.2978931    -1.6786578
H           3.3445776    -5.3970335     0.0797240
C           5.9291492     0.9644129     0.1636901
H           6.7726151     1.6007702     0.4044575
C           5.0973056     1.3389098    -0.9597720
N           4.0449105     0.4082821    -1.1537500
H           3.4544809     0.5912037    -1.9583013
C           3.8228017    -0.7021512    -0.3836151
N           4.5951639    -1.0134922     0.6255993
C           5.6460401    -0.1678302     0.8712632
H           6.2732990    -0.4579417     1.7119291
O           5.2120538     2.3013566    -1.7065071
25
430_C11H10N2O2_1-0-20-18 (-30,) energy =    -685.1392983
C           2.6492651    -1.5165365    -0.7342049
C           1.4471230    -0.8652619    -1.0521694
H           1.4054653     0.2193257    -1.0025543
C           0.2836159    -1.5666024    -1.3580506
H          -0.6343952    -1.0308039    -1.5775341
C           0.3162748    -2.9588555    -1.3637293
H          -0.5800597    -3.5275685    -1.5957778
C           1.4982067    -3.6394286    -1.0744164
H           1.5049756    -4.7223369    -1.0982625
C           2.6727482    -2.9370449    -0.7688012
O           3.8584912    -3.5457171    -0.5369036
C           3.9272078    -4.9631804    -0.5788733
H           4.9679860    -5.2105378    -0.3650688
H           3.6555328    -5.3529859    -1.5685809
H           3.2820769    -5.4201157     0.1822639
C           5.9500047     0.9777448     0.1400852
H           6.7900090     1.6179523     0.3825154
C           4.9948280     1.4515873    -0.8373674
N           3.9604676     0.5064386    -1.0513036
H           3.3039594     0.7641053    -1.7796873
C           3.8590439    -0.7127070    -0.4307616
N           4.7447896    -1.1089239     0.4494801
C           5.7822655    -0.2524897     0.7065198
H           6.5024299    -0.6211938     1.4345372
O           4.9991270     2.5060295    -1.4585117
25
430_C11H10N2O2_1-0-20-18 (-15,) energy =    -685.1369460
C           2.6634103    -1.5139590    -0.7684684
C           1.4704202    -0.8764271    -1.1534629
H           1.4155592     0.2076800    -1.1430560
C           0.3122905    -1.5779604    -1.4713313
H          -0.5915181    -1.0412487    -1.7413872
C           0.3317445    -2.9696191    -1.4263304
H          -0.5602732    -3.5412162    -1.6675638
C           1.4980261    -3.6422723    -1.0715917
H           1.4975119    -4.7250286    -1.0528593
C           2.6707300    -2.9396451    -0.7529374
O           3.8301589    -3.5653045    -0.4541348
C           3.8743892    -4.9844755    -0.4494514
H           4.9013465    -5.2405426    -0.1850609
H           3.6372896    -5.4011625    -1.4370163
H           3.1912421    -5.4073612     0.2981003
C           5.9823149     0.9744420     0.1095678
H           6.8283128     1.6061421     0.3533134
C           4.9090990     1.5432614    -0.6742982
N           3.8783413     0.6004751    -0.9102108
H           3.1504668     0.9467846    -1.5232516
C           3.8769435    -0.7057435    -0.4847309
N           4.8721315    -1.1830753     0.2234835
C           5.9092980    -0.3324978     0.4942420
H           6.7164386    -0.7768078     1.0738750
O           4.8151038     2.6758169    -1.1293262
25
430_C11H10N2O2_1-0-20-18 (0,) energy =    -685.1350324
C           2.6974558    -1.5224612    -0.8702630
C           1.5090885    -0.9051491    -1.3048179
H           1.4573027     0.1736374    -1.4039106
C           0.3581748    -1.6143051    -1.6267660
H          -0.5302080    -1.0854204    -1.9566474
C           0.3673161    -3.0023420    -1.5186174
H          -0.5186608    -3.5815248    -1.7637764
C           1.5176760    -3.6582841    -1.0937436
H           1.5088959    -4.7380446    -1.0148384
C           2.6845987    -2.9476896    -0.7669082
O           3.8066097    -3.5739622    -0.3536591
C           3.8186458    -4.9896765    -0.2447705
H           4.8222602    -5.2424565     0.1002278
H           3.6345763    -5.4725028    -1.2130970
H           3.0821108    -5.3464937     0.4865876
C           6.0333369     0.9548296     0.0318857
H           6.8906186     1.5752256     0.2648140
C           4.8205138     1.6014260    -0.4134203
N           3.7924184     0.6644264    -0.6772266
H           2.9376806     1.1061846    -0.9891159
C           3.8928434    -0.6995245    -0.5417931
N           5.0150584    -1.2436705    -0.1343153
C           6.0583834    -0.4043241     0.1431410
H           6.9637461    -0.9080766     0.4772280
O           4.6079139     2.7966399    -0.5742596
25
430_C11H10N2O2_1-0-20-18 (15,) energy =    -685.1369460
C           2.7206787    -1.6887307    -0.3627471
C           1.7215560    -1.6433565     0.6259834
H           1.7754587    -0.8914771     1.4071224
C           0.6053143    -2.4728222     0.6048841
H          -0.1512603    -2.3858303     1.3781155
C           0.4731705    -3.4014191    -0.4243697
H          -0.3905803    -4.0593463    -0.4653409
C           1.4500057    -3.4954178    -1.4120295
H           1.3358716    -4.2311162    -2.1984352
C           2.5802666    -2.6631628    -1.3940775
O           3.5683114    -2.7653373    -2.3096841
C           3.4667871    -3.7392939    -3.3378505
H           4.3720856    -3.6237618    -3.9355135
H           2.5885389    -3.5662723    -3.9727518
H           3.4266628    -4.7576016    -2.9297229
C           5.9754710     0.9954544     0.0611538
H           6.8001982     1.6921132     0.1542184
C           5.1786070     0.7201827     1.2354736
N           4.1420014    -0.2047269     0.9580693
H           3.6166281    -0.4769369     1.7799181
C           3.9092471    -0.8042756    -0.2558538
N           4.6576026    -0.5276795    -1.2966570
C           5.6829439     0.3590030    -1.1096386
H           6.2828967     0.5475296    -1.9981070
O           5.3085140     1.1688388     2.3670209
25
430_C11H10N2O2_1-0-20-18 (30,) energy =    -685.1392983
C           2.6987185    -1.6674407    -0.3838501
C           1.6764416    -1.5655569     0.5726932
H           1.7339824    -0.7839777     1.3252557
C           0.5522135    -2.3868610     0.5450944
H          -0.2300252    -2.2657743     1.2876831
C           0.4446421    -3.3507735    -0.4542897
H          -0.4251414    -4.0005747    -0.4982395
C           1.4511276    -3.4954516    -1.4081763
H           1.3539870    -4.2609652    -2.1683457
C           2.5861931    -2.6725026    -1.3822396
O           3.6170599    -2.8081084    -2.2477856
C           3.5503078    -3.8117707    -3.2497297
H           4.4816918    -3.7249878    -3.8110764
H           2.7022042    -3.6487552    -3.9268263
H           3.4799652    -4.8165031    -2.8128757
C           5.9374178     1.0162990     0.0509735
H           6.7575159     1.7172977     0.1523897
C           5.2904297     0.5488168     1.2572776
N           4.2449570    -0.3623769     0.9645511
H           3.8066507    -0.7711801     1.7822953
C           3.8786019    -0.7723101    -0.2921963
N           4.4890423    -0.3276409    -1.3627058
C           5.5184858     0.5533149    -1.1625351
H           6.0072268     0.8914655    -2.0743329
O           5.5463907     0.8345780     2.4193927
25
430_C11H10N2O2_1-0-20-18 (45,) energy =    -685.1402965
C           2.6652777    -1.6487448    -0.3790367
C           1.6131667    -1.4913422     0.5324042
H           1.6663876    -0.6859438     1.2605185
C           0.4843830    -2.3087959     0.4941020
H          -0.3254956    -2.1560980     1.2004276
C           0.4089371    -3.3109522    -0.4699238
H          -0.4631891    -3.9572571    -0.5194896
C           1.4487307    -3.5023938    -1.3811372
H           1.3733645    -4.2974415    -2.1132557
C           2.5844852    -2.6829528    -1.3439435
O           3.6533599    -2.8406284    -2.1618370
C           3.6154256    -3.8567761    -3.1527584
H           4.5640642    -3.7812441    -3.6861831
H           2.7889735    -3.6997972    -3.8574046
H           3.5278602    -4.8553679    -2.7049816
C           5.9103780     1.0218509     0.0307742
H           6.7338236     1.7193470     0.1297231
C           5.4068047     0.3936906     1.2333577
N           4.3406869    -0.4950081     0.9420877
H           3.9765649    -1.0033109     1.7410954
C           3.8335847    -0.7349543    -0.3072222
N           4.3127594    -0.1507942    -1.3754630
C           5.3567358     0.7159288    -1.1786376
H           5.7372003     1.1796182    -2.0866993
O           5.7896833     0.5371582     2.3865729
25
430_C11H10N2O2_1-0-20-18 (60,) energy =    -685.1400206
C           2.6278125    -1.6191813    -0.3786355
C           1.5407235    -1.4164418     0.4770261
H           1.5746052    -0.5882406     1.1804149
C           0.4126748    -2.2361320     0.4210431
H          -0.4264787    -2.0567912     1.0857667
C           0.3772220    -3.2756845    -0.5049264
H          -0.4930293    -3.9236391    -0.5654142
C           1.4539218    -3.5047221    -1.3645685
H           1.4074733    -4.3260582    -2.0698574
C           2.5856821    -2.6822788    -1.3088046
O           3.6907636    -2.8521146    -2.0786567
C           3.6912776    -3.8838406    -3.0544506
H           4.6566994    -3.8126630    -3.5575508
H           2.8875128    -3.7421221    -3.7879117
H           3.5933935    -4.8754250    -2.5935190
C           5.9086063     1.0114867    -0.0020869
H           6.7429663     1.6970414     0.0892392
C           5.5477081     0.2267554     1.1597541
N           4.4483090    -0.6258758     0.8812414
H           4.1621358    -1.2278172     1.6465523
C           3.7932707    -0.6955896    -0.3171151
N           4.1420213     0.0259950    -1.3494250
C           5.2101377     0.8680500    -1.1654873
H           5.4817640     1.4528688    -2.0420140
O           6.0644597     0.2235980     2.2685305
25
430_C11H10N2O2_1-0-20-18 (75,) energy =    -685.1393347
C           2.5743142    -1.5709564    -0.3795316
C           1.4526605    -1.3394346     0.4189296
H           1.4530517    -0.4855101     1.0913695
C           0.3353902    -2.1742082     0.3486832
H          -0.5327559    -1.9780428     0.9701007
C           0.3485035    -3.2521608    -0.5327824
H          -0.5131817    -3.9106581    -0.6014725
C           1.4621440    -3.5065368    -1.3372177
H           1.4518867    -4.3548755    -2.0114816
C           2.5811235    -2.6691001    -1.2651081
O           3.7217542    -2.8436204    -1.9847945
C           3.7780478    -3.9074910    -2.9242642
H           4.7610193    -3.8365546    -3.3922388
H           3.0008806    -3.8050548    -3.6920599
H           3.6786407    -4.8842415    -2.4331229
C           5.9101145     0.9963996    -0.0263617
H           6.7610996     1.6622055     0.0579289
C           5.6907294     0.0419955     1.0404700
N           4.5461776    -0.7571397     0.7853503
H           4.3432944    -1.4622182     1.4865711
C           3.7448996    -0.6477389    -0.3153217
N           3.9652943     0.2234512    -1.2626864
C           5.0619394     1.0338357    -1.0939196
H           5.2252000     1.7481610    -1.8982768
O           6.3480724    -0.1283322     2.0577141
25
430_C11H10N2O2_1-0-20-18 (90,) energy =    -685.1392601
C           2.5241390    -1.5216336    -0.4139169
C           1.3751156    -1.2593435     0.3326115
H           1.3472579    -0.3727818     0.9601427
C           0.2689980    -2.1095500     0.2675033
H          -0.6212600    -1.8923625     0.8494404
C           0.3219341    -3.2326216    -0.5544417
H          -0.5315485    -3.9022356    -0.6177136
C           1.4649398    -3.5179219    -1.3057095
H           1.4849865    -4.3983546    -1.9373725
C           2.5727595    -2.6662063    -1.2350906
O           3.7412063    -2.8582409    -1.9083214
C           3.8457839    -3.9707907    -2.7856977
H           4.8451628    -3.9126024    -3.2194479
H           3.0973143    -3.9202310    -3.5864790
H           3.7381967    -4.9205059    -2.2459050
C           5.8913462     1.0028064    -0.0357224
H           6.7498913     1.6577476     0.0568734
C           5.8106211    -0.1353810     0.8568350
N           4.6331099    -0.8898937     0.6195594
H           4.5188962    -1.7120037     1.2034762
C           3.7018718    -0.6055964    -0.3372925
N           3.7960799     0.4299856    -1.1265673
C           4.9079009     1.2206827    -0.9546635
H           4.9640918     2.0750032    -1.6260824
O           6.5981296    -0.4766762     1.7281347
25
430_C11H10N2O2_1-0-20-18 (105,) energy =    -685.1405381
C           2.5033139    -1.4785398    -0.4713762
C           1.3324365    -1.1783343     0.2264248
H           1.2891440    -0.2567931     0.7994760
C           0.2296834    -2.0328630     0.1772107
H          -0.6767547    -1.7859178     0.7210747
C           0.3068572    -3.2016261    -0.5767863
H          -0.5447905    -3.8745884    -0.6278364
C           1.4726769    -3.5285825    -1.2738851
H           1.5115331    -4.4433264    -1.8537485
C           2.5790100    -2.6744157    -1.2146405
O           3.7704631    -2.9078642    -1.8363875
C           3.9000171    -4.0690875    -2.6455493
H           4.9135382    -4.0375758    -3.0480717
H           3.1785574    -4.0622982    -3.4721644
H           3.7706042    -4.9863227    -2.0567390
C           5.8638007     1.0360711     0.0043623
H           6.7170481     1.6927145     0.1283185
C           5.9140087    -0.2647868     0.6402268
N           4.7245114    -0.9984613     0.4028813
H           4.7032972    -1.9302996     0.8037710
C           3.6825970    -0.5708686    -0.3684863
N           3.6586867     0.6114046    -0.9245578
C           4.7681699     1.3978642    -0.7218062
H           4.7238283     2.3748341    -1.1986628
O           6.8125039    -0.7458860     1.3164186
25
430_C11H10N2O2_1-0-20-18 (120,) energy =    -685.1430947
C           2.5011910    -1.4566945    -0.5179177
C           1.3101348    -1.1124972     0.1273523
H           1.2647472    -0.1617454     0.6489555
C           0.1988945    -1.9541119     0.0836591
H          -0.7201201    -1.6699363     0.5867039
C           0.2835087    -3.1598806    -0.6093448
H          -0.5749134    -3.8244311    -0.6565202
C           1.4681934    -3.5357287    -1.2468634
H           1.5151507    -4.4794149    -1.7774627
C           2.5849005    -2.6957001    -1.1892626
O           3.7956416    -2.9892853    -1.7499308
C           3.9255788    -4.1859400    -2.5074366
H           4.9533468    -4.1936041    -2.8732242
H           3.2341258    -4.1946341    -3.3589677
H           3.7526220    -5.0751024    -1.8879223
C           5.8324831     1.0701287     0.0693277
H           6.6733307     1.7348123     0.2293897
C           5.9984806    -0.3271206     0.4134158
N           4.8113035    -1.0621822     0.1716588
H           4.8798450    -2.0597265     0.3424994
C           3.6753550    -0.5520937    -0.3873908
N           3.5505687     0.7167876    -0.6847552
C           4.6481445     1.5070885    -0.4463811
H           4.5170103     2.5550579    -0.7082521
O           6.9881153    -0.8852288     0.8671387
25
430_C11H10N2O2_1-0-20-18 (135,) energy =    -685.1461870
C           2.5116424    -1.4486647    -0.5314563
C           1.2970135    -1.0695171     0.0529565
H           1.2506141    -0.1006413     0.5383838
C           0.1755378    -1.8938566    -0.0060123
H          -0.7571479    -1.5790627     0.4516260
C           0.2666306    -3.1242758    -0.6536807
H          -0.5992342    -3.7781544    -0.7118814
C           1.4699588    -3.5379153    -1.2282246
H           1.5232015    -4.5007504    -1.7221918
C           2.5978644    -2.7144961    -1.1554019
O           3.8212880    -3.0603628    -1.6613335
C           3.9500427    -4.2850207    -2.3751462
H           4.9897402    -4.3268933    -2.7026943
H           3.2891806    -4.3042198    -3.2500007
H           3.7340801    -5.1483086    -1.7335631
C           5.8158045     1.0997817     0.1198996
H           6.6468128     1.7712539     0.3011113
C           6.0639541    -0.3244403     0.1983639
N           4.8843309    -1.0710994    -0.0422352
H           5.0058514    -2.0778119    -0.0761983
C           3.6745624    -0.5367248    -0.3768989
N           3.4784170     0.7589481    -0.4393131
C           4.5666545     1.5540276    -0.1877139
H           4.3724790     2.6227872    -0.2535354
O           7.1170150    -0.8994148     0.4396863
25
430_C11H10N2O2_1-0-20-18 (150,) energy =    -685.1486440
C           2.5149354    -1.4538768    -0.5189997
C           1.2761844    -1.0416354    -0.0063009
H           1.2290150    -0.0619630     0.4555504
C           0.1433939    -1.8442892    -0.0988606
H          -0.8024892    -1.4994054     0.3071219
C           0.2389905    -3.0923030    -0.7118237
H          -0.6348442    -3.7328389    -0.7938657
C           1.4587191    -3.5378209    -1.2216757
H           1.5164359    -4.5121815    -1.6915264
C           2.5985480    -2.7334487    -1.1202188
O           3.8267315    -3.1225792    -1.5852932
C           3.9516887    -4.3682494    -2.2640441
H           4.9987380    -4.4363119    -2.5622022
H           3.3140169    -4.3971725    -3.1552594
H           3.7031510    -5.2093566    -1.6055642
C           5.8127380     1.1098700     0.1375921
H           6.6401800     1.7857651     0.3183926
C           6.1036430    -0.2995835    -0.0118987
N           4.9255233    -1.0551620    -0.2294467
H           5.0648021    -2.0446041    -0.4079014
C           3.6696820    -0.5358716    -0.3399244
N           3.4371386     0.7499995    -0.2011949
C           4.5238149     1.5473083     0.0363230
H           4.2949217     2.6060669     0.1417865
O           7.1916078    -0.8594006     0.0312639
25
430_C11H10N2O2_1-0-20-18 (165,) energy =    -685.1499135
C           2.5179100    -1.4608235    -0.5026615
C           1.2597638    -1.0217454    -0.0589564
H           1.2111260    -0.0353718     0.3872099
C           0.1186873    -1.8048934    -0.1890681
H          -0.8380156    -1.4348202     0.1662609
C           0.2185773    -3.0656833    -0.7748853
H          -0.6611439    -3.6938064    -0.8849859
C           1.4513405    -3.5366469    -1.2241106
H           1.5132407    -4.5188139    -1.6764414
C           2.6001820    -2.7491009    -1.0900065
O           3.8313693    -3.1743513    -1.5156600
C           3.9567637    -4.4436352    -2.1498349
H           5.0118066    -4.5382961    -2.4098884
H           3.3489227    -4.4909089    -3.0607074
H           3.6719027    -5.2571922    -1.4722271
C           5.8066104     1.1261366     0.1472432
H           6.6301221     1.8075730     0.3247904
C           6.1153533    -0.2369575    -0.2233131
N           4.9419012    -1.0064329    -0.4155706
H           5.0855918    -1.9667718    -0.7117597
C           3.6673592    -0.5392295    -0.2975315
N           3.4201597     0.7083747     0.0392874