25
430_C11H10N2O2_0-9-10-11 (-165,) energy =    -685.1498776
C           2.5397816    -1.4824891    -0.4493622
C           1.2638822    -0.9964308    -0.1157469
H           1.2095077     0.0123706     0.2759450
C           0.1160728    -1.7614785    -0.2821793
H          -0.8529482    -1.3512014    -0.0152966
C           0.2233138    -3.0539982    -0.7938281
H          -0.6620415    -3.6687756    -0.9307179
C           1.4716035    -3.5714524    -1.1334681
H           1.5438014    -4.5791295    -1.5245897
C           2.6278644    -2.8017917    -0.9627324
O           3.8701007    -3.2862346    -1.2836602
C           3.9809396    -4.4577379    -2.0885677
H           5.0398192    -4.5460352    -2.3355353
H           3.3921853    -4.3595126    -3.0076232
H           3.6625166    -5.3508385    -1.5383778
C           5.8260040     1.1218979     0.1579724
H           6.6479818     1.8085320     0.3219316
C           6.1294585    -0.2024612    -0.3358767
N           4.9588673    -0.9831731    -0.4973444
H           5.0985534    -1.9279365    -0.8423046
C           3.6901586    -0.5631832    -0.2330738
N           3.4483488     0.6502863     0.2156646
C           4.5275435     1.4666861     0.4022558
H           4.2859269     2.4603735     0.7750308
O           7.2237107    -0.6802961    -0.6086741
25
430_C11H10N2O2_0-9-10-11 (-150,) energy =    -685.1488222
C           2.5323552    -1.5064673    -0.4172247
C           1.2517783    -1.0047811    -0.1240584
H           1.1921967     0.0187390     0.2267167
C           0.1057738    -1.7731044    -0.2852467
H          -0.8671805    -1.3513909    -0.0524251
C           0.2175812    -3.0844986    -0.7480525
H          -0.6675126    -3.7009271    -0.8789085
C           1.4707214    -3.6158765    -1.0426018
H           1.5541176    -4.6384697    -1.3926914
C           2.6254564    -2.8439347    -0.8750202
O           3.8692809    -3.3578370    -1.1521726
C           3.9920591    -4.3608960    -2.1619230
H           5.0544702    -4.4083652    -2.4067240
H           3.4146314    -4.0901381    -3.0526268
H           3.6662176    -5.3405028    -1.7937318
C           5.8206504     1.1042519     0.1377321
H           6.6441189     1.7927782     0.2855814
C           6.1277281    -0.2549089    -0.2485101
N           4.9553064    -1.0349401    -0.3978059
H           5.0935491    -2.0036232    -0.6708751
C           3.6826748    -0.5832300    -0.2194210
N           3.4368093     0.6612321     0.1303709
C           4.5180591     1.4784055     0.3038929
H           4.2742072     2.4984205     0.5950880
O           7.2261604    -0.7596582    -0.4447799
25
430_C11H10N2O2_0-9-10-11 (-135,) energy =    -685.1474859
C           2.5043729    -1.5509684    -0.3928180
C           1.2209780    -1.0356724    -0.1333205
H           1.1576955     0.0003722     0.1780108
C           0.0771084    -1.8093476    -0.2802613
H          -0.8980491    -1.3782687    -0.0750476
C           0.1911510    -3.1390893    -0.6905107
H          -0.6936207    -3.7589929    -0.8060249
C           1.4472252    -3.6809508    -0.9477500
H           1.5411684    -4.7176002    -1.2530301
C           2.5995955    -2.9030663    -0.7975174
O           3.8433927    -3.4480373    -1.0362622
C           4.0104351    -4.2421779    -2.2159759
H           5.0878140    -4.3337634    -2.3653913
H           3.5529074    -3.7524196    -3.0823901
H           3.5827212    -5.2429821    -2.0899435
C           5.8003364     1.0599301     0.1013287
H           6.6265893     1.7487470     0.2314326
C           6.1040115    -0.3232012    -0.1934189
N           4.9280700    -1.1005378    -0.3262975
H           5.0588815    -2.0868205    -0.5349288
C           3.6564081    -0.6253639    -0.2165916
N           3.4126834     0.6397870     0.0484440
C           4.4979024     1.4558412     0.2056608
H           4.2570480     2.4938210     0.4274098
O           7.2023600    -0.8473204    -0.3290883
25
430_C11H10N2O2_0-9-10-11 (-120,) energy =    -685.1467260
C           2.4956175    -1.5745232    -0.3860465
C           1.2131067    -1.0460485    -0.1461404
H           1.1507495     0.0002112     0.1293935
C           0.0694345    -1.8247672    -0.2633885
H          -0.9050567    -1.3857382    -0.0717952
C           0.1804269    -3.1716578    -0.6181768
H          -0.7053546    -3.7953381    -0.7003508
C           1.4358421    -3.7223921    -0.8565033
H           1.5382909    -4.7726259    -1.1107288
C           2.5867159    -2.9367315    -0.7475448
O           3.8258326    -3.5172286    -0.9581879
C           4.0599627    -4.0623435    -2.2637929
H           5.0885674    -4.4269806    -2.2571949
H           3.9432193    -3.2906515    -3.0337100
H           3.3822307    -4.8955951    -2.4775020
C           5.8111512     1.0199240     0.0454099
H           6.6436096     1.7043361     0.1582302
C           6.1029492    -0.3843542    -0.1460619
N           4.9198006    -1.1526732    -0.2677798
H           5.0380986    -2.1535906    -0.4057397
C           3.6535444    -0.6517639    -0.2359224
N           3.4201371     0.6306675    -0.0641769
C           4.5129384     1.4405562     0.0776069
H           4.2816121     2.4942178     0.2217016
O           7.1971827    -0.9299309    -0.2082241
25
430_C11H10N2O2_0-9-10-11 (-105,) energy =    -685.1464441
C           2.4748668    -1.6097251    -0.3883954
C           1.1948664    -1.0686875    -0.1654361
H           1.1335436    -0.0131070     0.0727596
C           0.0504191    -1.8516799    -0.2484639
H          -0.9229268    -1.4050936    -0.0684517
C           0.1572525    -3.2117950    -0.5513985
H          -0.7305074    -3.8356807    -0.6052745
C           1.4115825    -3.7716666    -0.7764552
H           1.5220916    -4.8287898    -0.9985770
C           2.5616033    -2.9829359    -0.7008953
O           3.7908290    -3.5908401    -0.9121147
C           4.0965092    -3.8755809    -2.2856788
H           5.0673345    -4.3742634    -2.2843225
H           4.1543931    -2.9513203    -2.8733789
H           3.3423113    -4.5382150    -2.7247430
C           5.8154151     0.9566142    -0.0082075
H           6.6559381     1.6332195     0.0912006
C           6.0888409    -0.4623647    -0.0913085
N           4.8969292    -1.2180660    -0.2108039
H           5.0004997    -2.2286234    -0.2749554
C           3.6401674    -0.6939116    -0.2624085
N           3.4233328     0.5998904    -0.1861184
C           4.5255165     1.4000661    -0.0558542
H           4.3089226     2.4646972     0.0074002
O           7.1744747    -1.0271544    -0.0700056
25
430_C11H10N2O2_0-9-10-11 (-90,) energy =    -685.1458430
C           2.4647142    -1.6499915    -0.4179057
C           1.1890989    -1.0996739    -0.1975467
H           1.1306297    -0.0359425     0.0026869
C           0.0442439    -1.8872396    -0.2285645
H          -0.9265013    -1.4345861    -0.0494600
C           0.1476424    -3.2584698    -0.4760402
H          -0.7404279    -3.8840677    -0.4901040
C           1.3987278    -3.8254874    -0.7065119
H           1.5111997    -4.8874992    -0.9022218
C           2.5475903    -3.0338321    -0.6812845
O           3.7648098    -3.6575736    -0.9206578
C           4.1514823    -3.6868058    -2.3040867
H           5.1073124    -4.2124516    -2.3423618
H           4.2708711    -2.6729633    -2.7045056
H           3.4064264    -4.2271811    -2.8995849
C           5.8267441     0.8903500    -0.0755923
H           6.6742191     1.5594557     0.0150697
C           6.0800871    -0.5348928    -0.0551637
N           4.8808341    -1.2797436    -0.1755056
H           4.9718991    -2.2937394    -0.1693785
C           3.6362381    -0.7407703    -0.3152021
N           3.4381207     0.5575989    -0.3317474
C           4.5479694     1.3487931    -0.2062432
H           4.3474635     2.4183012    -0.2209458
O           7.1541889    -1.1118938     0.0478632
25
430_C11H10N2O2_0-9-10-11 (-75,) energy =    -685.1443639
C           2.4481364    -1.6866905    -0.4552829
C           1.1812181    -1.1244723    -0.2198497
H           1.1304105    -0.0548805    -0.0498527
C           0.0346033    -1.9103686    -0.1885195
H          -0.9300800    -1.4499193     0.0028881
C           0.1312057    -3.2898013    -0.3860980
H          -0.7575490    -3.9136553    -0.3515049
C           1.3732886    -3.8668172    -0.6425049
H           1.4780704    -4.9322930    -0.8215508
C           2.5235231    -3.0782879    -0.6809353
O           3.7184435    -3.7188651    -0.9750892
C           4.1987966    -3.5135196    -2.3138947
H           5.1419657    -4.0584833    -2.3834793
H           4.3719038    -2.4530020    -2.5257854
H           3.4825467    -3.9170405    -3.0394331
C           5.8360332     0.8132966    -0.0930913
H           6.6908164     1.4719946     0.0050500
C           6.0573153    -0.6119938     0.0345658
N           4.8504088    -1.3414912    -0.1079864
H           4.9252808    -2.3542063    -0.0377609
C           3.6282493    -0.7897933    -0.3616721
N           3.4596831     0.5071715    -0.4746517
C           4.5779661     1.2845985    -0.3320831
H           4.4022994     2.3540975    -0.4290435
O           7.1106437    -1.1999089     0.2378788
25
430_C11H10N2O2_0-9-10-11 (-60,) energy =    -685.1415263
C           2.4291372    -1.7062639    -0.5195051
C           1.1727878    -1.1395306    -0.2408869
H           1.1299171    -0.0665943    -0.0893175
C           0.0304351    -1.9246331    -0.1343401
H          -0.9256838    -1.4613761     0.0899320
C           0.1251666    -3.3091795    -0.2948798
H          -0.7576228    -3.9353928    -0.2002830
C           1.3530057    -3.8891878    -0.6046464
H           1.4481017    -4.9562589    -0.7786100
C           2.5002341    -3.1019438    -0.7241190
O           3.6557601    -3.7622742    -1.1013942
C           4.2441825    -3.3692740    -2.3508612
H           5.1392880    -3.9838296    -2.4624146
H           4.5262948    -2.3136610    -2.3712406
H           3.5497963    -3.5761019    -3.1741925
C           5.8254976     0.7699790    -0.1078275
H           6.6838266     1.4209639     0.0085643
C           6.0126777    -0.6464830     0.1287721
N           4.8053881    -1.3677503    -0.0530205
H           4.8657492    -2.3735036     0.0866682
C           3.6128756    -0.8164330    -0.4280352
N           3.4764583     0.4715221    -0.6366069
C           4.5964905     1.2423349    -0.4656313
H           4.4478281     2.3053404    -0.6444632
O           7.0373721    -1.2334840     0.4464884
25
430_C11H10N2O2_0-9-10-11 (-45,) energy =    -685.1384862
C           2.3936806    -1.7430264    -0.5530552
C           1.1473848    -1.1755139    -0.2279687
H           1.1102519    -0.1025829    -0.0730621
C           0.0112389    -1.9595153    -0.0762534
H          -0.9361210    -1.4989056     0.1867169
C           0.1043659    -3.3449115    -0.2426592
H          -0.7733076    -3.9726193    -0.1153840
C           1.3155383    -3.9235186    -0.6067313
H           1.4012548    -4.9889586    -0.7944277
C           2.4594798    -3.1358128    -0.7794558
O           3.5767796    -3.8092636    -1.2123228
C           4.3590107    -3.2799544    -2.2938825
H           4.4908957    -4.0919273    -3.0150721
H           5.3397121    -2.9552950    -1.9366668
H           3.8505523    -2.4423837    -2.7811434
C           5.8033633     0.7245908    -0.2200741
H           6.6668487     1.3726293    -0.1279872
C           5.9593865    -0.6686184     0.1402355
N           4.7427284    -1.3822659    -0.0103812
H           4.7800823    -2.3636191     0.2498678
C           3.5776599    -0.8543159    -0.4908361
N           3.4702532     0.4119362    -0.8156793
C           4.5945906     1.1803288    -0.6602121
H           4.4690377     2.2270755    -0.9295731
O           6.9630014    -1.2458488     0.5348369
25
430_C11H10N2O2_0-9-10-11 (-30,) energy =    -685.1361888
C           2.3908271    -1.7639528    -0.5827058
C           1.1677038    -1.1958507    -0.1747562
H           1.1508814    -0.1278816     0.0157634
C           0.0316484    -1.9698358     0.0136215
H          -0.8946714    -1.5081454     0.3412740
C           0.1017919    -3.3507211    -0.2018438
H          -0.7741535    -3.9749051    -0.0479073
C           1.2824257    -3.9274001    -0.6512169
H           1.3429044    -4.9856564    -0.8840727
C           2.4293048    -3.1480149    -0.8646658
O           3.4788638    -3.8358336    -1.4130353
C           4.3926434    -3.2126199    -2.3203778
H           4.6212923    -3.9651669    -3.0796099
H           5.3187205    -2.9196440    -1.8189286
H           3.9428501    -2.3378790    -2.8017798
C           5.8085944     0.6944608    -0.2561245
H           6.6733853     1.3407159    -0.1635264
C           5.9260148    -0.6676847     0.2190547
N           4.7088672    -1.3795098     0.0538441
H           4.7147594    -2.3303730     0.4102969
C           3.5793051    -0.8794207    -0.5321107
N           3.5063587     0.3590212    -0.9557382
C           4.6313470     1.1268829    -0.7939946
H           4.5341174     2.1520016    -1.1455529
O           6.8959560    -1.2210341     0.7176396
25
430_C11H10N2O2_0-9-10-11 (-15,) energy =    -685.1349506
C           2.4687840    -1.8295551    -0.8100297
C           1.3708395    -0.9908050    -1.1063956
H           1.5223606     0.0850046    -1.0746560
C           0.1042142    -1.4902677    -1.3683246
H          -0.7189091    -0.8129426    -1.5730425
C          -0.0956319    -2.8746065    -1.3371487
H          -1.0797361    -3.2923022    -1.5309589
C           0.9680945    -3.7235047    -1.0765254
H           0.8437031    -4.8015362    -1.0831848
C           2.2614913    -3.2294995    -0.8228761
O           3.1811884    -4.2171138    -0.6770912
C           4.5847473    -4.0013687    -0.7871889
H           5.0094659    -4.9839904    -1.0053423
H           4.9979019    -3.6064864     0.1422761
H           4.8191109    -3.3180954    -1.6130667
C           5.8924990     0.3732069     0.3206071
H           6.7514115     0.9554786     0.6326787
C           5.2717762     0.7063539    -0.9445639
N           4.1684133    -0.1440003    -1.2169071
H           3.7073143     0.0216224    -2.1056670
C           3.7187936    -1.1423730    -0.3953688
N           4.3067267    -1.4199288     0.7425073
C           5.3975046    -0.6525797     1.0706992
H           5.8644885    -0.9135367     2.0181012
O           5.5902518     1.5749103    -1.7435828
25
430_C11H10N2O2_0-9-10-11 (0,) energy =    -685.1341235
C           2.4635987    -1.8305672    -0.8127502
C           1.3521547    -0.9838388    -1.0252480
H           1.5007560     0.0885331    -0.9283923
C           0.0835020    -1.4734600    -1.2946237
H          -0.7483130    -0.7901713    -1.4337349
C          -0.1045274    -2.8583168    -1.3599886
H          -1.0888306    -3.2714132    -1.5624760
C           0.9705198    -3.7127650    -1.1800893
H           0.8533508    -4.7887577    -1.2585901
C           2.2665088    -3.2281368    -0.9158785
O           3.1903820    -4.2223750    -0.8831019
C           4.5888245    -4.0033082    -0.7305235
H           5.0483684    -4.9752849    -0.9220869
H           4.8301345    -3.6565348     0.2757023
H           4.9630653    -3.2803593    -1.4662550
C           5.8958172     0.3864358     0.2697451
H           6.7567262     0.9734774     0.5671218
C           5.2763782     0.6892067    -1.0037719
N           4.1707421    -0.1652216    -1.2544498
H           3.7064758    -0.0203639    -2.1453054
C           3.7187674    -1.1411671    -0.4081332
N           4.3012359    -1.3870920     0.7393692
C           5.3951774    -0.6154906     1.0476149
H           5.8592903    -0.8512665     2.0029653
O           5.5966980     1.5372697    -1.8236386
25
430_C11H10N2O2_0-9-10-11 (15,) energy =    -685.1340819
C           2.3784663    -1.7959155    -0.6029302
C           1.1672483    -1.1613529    -0.2594696
H           1.2283048    -0.2501944     0.3269662
C          -0.0612438    -1.6526248    -0.6749178
H          -0.9762650    -1.1344377    -0.4054690
C          -0.1002693    -2.8113659    -1.4590426
H          -1.0505826    -3.2082739    -1.8054141
C           1.0732997    -3.4817490    -1.7703892
H           1.0609493    -4.4143252    -2.3253417
C           2.3217262    -3.0028105    -1.3366724
O           3.3504832    -3.8571530    -1.6138983
C           4.6032197    -3.8093334    -0.9339637
H           4.9930556    -4.8292472    -0.9709804
H           4.4811486    -3.5071687     0.1119792
H           5.3115133    -3.1396545    -1.4297572
C           5.8756193     0.4467216     0.1641433
H           6.7598716     1.0387816     0.3684207
C           5.6845599    -0.0413225    -1.1852221
N           4.4758107    -0.7780437    -1.3008420
H           4.2545445    -1.0975708    -2.2387669
C           3.6165737    -1.0459268    -0.2709594
N           3.8166712    -0.5860333     0.9392266
C           4.9485770     0.1680751     1.1256271
H           5.0800588     0.5438904     2.1382023
O           6.4026077     0.1149386    -2.1624804
25
430_C11H10N2O2_0-9-10-11 (30,) energy =    -685.1361888
C           2.3887132    -1.7574439    -0.5976447
C           1.1673910    -1.1945634    -0.1772514
H           1.2136548    -0.3213185     0.4649648
C          -0.0528588    -1.7082978    -0.5922554
H          -0.9789999    -1.2468839    -0.2637096
C          -0.0729880    -2.8104951    -1.4541982
H          -1.0185968    -3.2193464    -1.7995198
C           1.1159399    -3.4131737    -1.8435824
H           1.1226868    -4.3056370    -2.4610367
C           2.3530022    -2.9125607    -1.4106885
O           3.4268855    -3.6759827    -1.7839702
C           4.5832703    -3.8029850    -0.9513216
H           4.9050285    -4.8438035    -1.0419264
H           4.3466498    -3.5871792     0.0958994
H           5.3927441    -3.1493779    -1.2866644
C           5.8661261     0.5169873     0.1547833
H           6.7461208     1.1163526     0.3559151
C           5.7338773    -0.0734858    -1.1600835
N           4.5231390    -0.8052495    -1.2787123
H           4.3514761    -1.2073126    -2.1952881
C           3.6154569    -0.9910790    -0.2732657
N           3.7664730    -0.4448539     0.9088306
C           4.8944197     0.3140043     1.0911535
H           4.9839717     0.7618258     2.0787524
O           6.5019785    -0.0028963    -2.1090862
25
430_C11H10N2O2_0-9-10-11 (45,) energy =    -685.1384862
C           2.3867043    -1.7214775    -0.6028889
C           1.1620631    -1.2205916    -0.1229184
H           1.1973979    -0.3714143     0.5510291
C          -0.0507919    -1.7674930    -0.5208938
H          -0.9824427    -1.3551954    -0.1456037
C          -0.0604721    -2.8354256    -1.4237297
H          -1.0019372    -3.2659605    -1.7535931
C           1.1380890    -3.3753720    -1.8778030
H           1.1581003    -4.2379840    -2.5360123
C           2.3637178    -2.8401618    -1.4651287
O           3.4778792    -3.5042685    -1.9199646
C           4.5378809    -3.8339469    -1.0091768
H           4.7512576    -4.8982956    -1.1449724
H           4.2421376    -3.6538693     0.0288914
H           5.4367430    -3.2561710    -1.2394023
C           5.8557251     0.5630975     0.1537813
H           6.7347517     1.1632012     0.3568291
C           5.7843085    -0.1271878    -1.1164956
N           4.5704879    -0.8497249    -1.2461670
H           4.4484845    -1.3385618    -2.1283985
C           3.6068204    -0.9443531    -0.2821427
N           3.7044101    -0.3116597     0.8626842
C           4.8332297     0.4430129     1.0496792
H           4.8785148     0.9617725     2.0051033
O           6.6066680    -0.1441454    -2.0218051
25
430_C11H10N2O2_0-9-10-11 (60,) energy =    -685.1415263
C           2.4169281    -1.6685245    -0.6069247
C           1.1932207    -1.2024303    -0.0945549
H           1.2237655    -0.3562079     0.5829237
C          -0.0152966    -1.7830320    -0.4621064
H          -0.9462150    -1.3974664    -0.0573868
C          -0.0246821    -2.8460217    -1.3685720
H          -0.9633853    -3.2994164    -1.6746405
C           1.1773144    -3.3464204    -1.8633028
H           1.2030748    -4.1994028    -2.5339025
C           2.3937539    -2.7730979    -1.4868251
O           3.5333673    -3.3845466    -1.9777670
C           4.4310364    -3.9479153    -1.0089205
H           5.2617362    -4.3635693    -1.5820747
H           3.9288342    -4.7491216    -0.4533259
H           4.8141269    -3.2042966    -0.3056470
C           5.8556939     0.6770078     0.1071303
H           6.7243970     1.2960284     0.2974597
C           5.8407315    -0.1147467    -1.1054208
N           4.6424337    -0.8639309    -1.2221616
H           4.5681518    -1.4535920    -2.0476781
C           3.6301494    -0.8697164    -0.3046004
N           3.6749282    -0.1417322     0.7857998
C           4.7962295     0.6252869     0.9653038
H           4.7998270     1.2177453     1.8780149
O           6.7003018    -0.1913509    -1.9718980
25
430_C11H10N2O2_0-9-10-11 (75,) energy =    -685.1443639
C           2.4224145    -1.6071526    -0.6396627
C           1.1980172    -1.1761252    -0.0996008
H           1.2162891    -0.3198248     0.5651718
C           0.0026915    -1.8115043    -0.4171374
H          -0.9291928    -1.4522424     0.0092268
C           0.0041910    -2.8972652    -1.2959575
H          -0.9261714    -3.3925454    -1.5593942
C           1.2079279    -3.3560054    -1.8270289
H           1.2443939    -4.2105544    -2.4953790
C           2.4086618    -2.7235239    -1.5037642
O           3.5691434    -3.2579264    -2.0445011
C           4.3641624    -4.0257608    -1.1259799
H           5.2386138    -4.3584717    -1.6881487
H           3.7985496    -4.8952274    -0.7705094
H           4.6865504    -3.4266108    -0.2676988
C           5.8668113     0.7185568     0.1259576
H           6.7370747     1.3295031     0.3346571
C           5.9091653    -0.1538421    -1.0289628
N           4.7013399    -0.8806087    -1.1775510
H           4.6564703    -1.5233313    -1.9656017
C           3.6323395    -0.8022879    -0.3328588
N           3.6247974    -0.0028900     0.7083920
C           4.7516381     0.7482072     0.9117596
H           4.7108148     1.4010357     1.7813782
O           6.8228152    -0.3100677    -1.8272850
25
430_C11H10N2O2_0-9-10-11 (90,) energy =    -685.1458430
C           2.4334750    -1.5533811    -0.6418920
C           1.2029607    -1.1422336    -0.0983913
H           1.2062380    -0.2691200     0.5440246
C           0.0235927    -1.8231927    -0.3764189
H          -0.9120906    -1.4787275     0.0538834
C           0.0440292    -2.9382978    -1.2180424
H          -0.8745911    -3.4695219    -1.4508014
C           1.2514773    -3.3706735    -1.7611453
H           1.2995848    -4.2339813    -2.4178085
C           2.4364719    -2.6906294    -1.4773018
O           3.6075436    -3.1719789    -2.0472754
C           4.2988097    -4.1433081    -1.2454546
H           5.1801992    -4.4390017    -1.8173788
H           3.6615810    -5.0172706    -1.0669582
H           4.6081601    -3.7166549    -0.2838234
C           5.8614638     0.7834404     0.1716887
H           6.7274240     1.3955059     0.3944547
C           5.9596530    -0.1624366    -0.9199121
N           4.7525646    -0.8831713    -1.0958988
H           4.7380651    -1.5710187    -1.8463478
C           3.6342153    -0.7343445    -0.3302802
N           3.5759093     0.1320642     0.6552263
C           4.6999083     0.8796361     0.8816462
H           4.6160214     1.5888391     1.7027797
O           6.9176921    -0.3807833    -1.6491069
25
430_C11H10N2O2_0-9-10-11 (105,) energy =    -685.1464440
C           2.4405092    -1.5034143    -0.6349180
C           1.2042358    -1.0972578    -0.0987256
H           1.1951408    -0.2029170     0.5135013
C           0.0377452    -1.8122138    -0.3392732
H          -0.9012696    -1.4715628     0.0867030
C           0.0754430    -2.9589590    -1.1371759
H          -0.8335223    -3.5174183    -1.3424966
C           1.2854761    -3.3822097    -1.6795174
H           1.3383057    -4.2612269    -2.3148114
C           2.4596572    -2.6680605    -1.4312402
O           3.6374264    -3.1171485    -2.0111919
C           4.2224883    -4.2662325    -1.3799099
H           5.1120885    -4.5132617    -1.9619549
H           3.5281294    -5.1138384    -1.3901898
H           4.5064089    -4.0417441    -0.3445397
C           5.8415081     0.8763664     0.1772861
H           6.6994702     1.4991816     0.4012439
C           5.9837320    -0.1372364    -0.8462124
N           4.7824824    -0.8641580    -1.0322204
H           4.7966800    -1.5986408    -1.7367774
C           3.6304940    -0.6637765    -0.3324920
N           3.5321219     0.2640264     0.5928560
C           4.6484866     1.0204622     0.8243534
H           4.5304962     1.7804586     1.5943130
O           6.9730585    -0.4044348    -1.5154515
25
430_C11H10N2O2_0-9-10-11 (120,) energy =    -685.1467258
C           2.4636835    -1.4753132    -0.6162100
C           1.2197663    -1.0659807    -0.0996847
H           1.2002266    -0.1514506     0.4814447
C           0.0622939    -1.8023089    -0.3147236
H          -0.8813859    -1.4588719     0.0983327
C           0.1173466    -2.9766290    -1.0698541
H          -0.7831477    -3.5549831    -1.2567932
C           1.3323933    -3.4030384    -1.5971154
H           1.3855366    -4.3011311    -2.2043440
C           2.4993698    -2.6670180    -1.3733515
O           3.6892648    -3.0959850    -1.9362522
C           4.1632261    -4.3836972    -1.5195096
H           5.1200630    -4.5294626    -2.0237432
H           3.4728106    -5.1801633    -1.8165957
H           4.3066220    -4.4118931    -0.4329743
C           5.8313391     0.9582966     0.1883765
H           6.6790544     1.5954235     0.4110740
C           6.0177359    -0.1207400    -0.7575244
N           4.8243374    -0.8572631    -0.9532979
H           4.8704957    -1.6364275    -1.6056746
C           3.6416142    -0.6143218    -0.3228657
N           3.5040048     0.3721380     0.5353939
C           4.6095350     1.1426640     0.7684608
H           4.4574295     1.9513452     1.4807589
O           7.0365797    -0.4333608    -1.3600896
25
430_C11H10N2O2_0-9-10-11 (135,) energy =    -685.1474859
C           2.4757947    -1.4631273    -0.5968656
C           1.2252017    -1.0489645    -0.1024319
H           1.1955044    -0.1159871     0.4480099
C           0.0749391    -1.8030828    -0.2942811
H          -0.8732448    -1.4553568     0.1043556
C           0.1474674    -3.0048558    -1.0013766
H          -0.7439634    -3.6043305    -1.1639406
C           1.3684522    -3.4384764    -1.5099763
H           1.4262763    -4.3644543    -2.0720012
C           2.5266446    -2.6782889    -1.3192128
O           3.7311723    -3.1019765    -1.8394905
C           4.0866481    -4.4784498    -1.6683824
H           5.1546834    -4.5411610    -1.8847749
H           3.5437253    -5.1231988    -2.3683503
H           3.8933372    -4.8051205    -0.6408691
C           5.8117077     1.0246662     0.1824424
H           6.6498905     1.6765509     0.3982884
C           6.0357079    -0.1125912    -0.6827900
N           4.8509222    -0.8625466    -0.8792342
H           4.9272574    -1.6809495    -1.4773883
C           3.6422989    -0.5821023    -0.3175209
N           3.4713761     0.4582595     0.4690524
C           4.5666265     1.2433392     0.6981069
H           4.3857759     2.0958850     1.3500629
O           7.0777352    -0.4626999    -1.2223000
25
430_C11H10N2O2_0-9-10-11 (150,) energy =    -685.1488222
C           2.5130401    -1.4472393    -0.5548242
C           1.2560173    -1.0177656    -0.0933443
H           1.2197296    -0.0647940     0.4211481
C           0.1074355    -1.7784670    -0.2715168
H          -0.8458071    -1.4170549     0.1018351
C           0.1916969    -3.0053416    -0.9303462
H          -0.6962223    -3.6133309    -1.0802541
C           1.4195430    -3.4590091    -1.4058883
H           1.4788394    -4.4083213    -1.9259779
C           2.5755012    -2.6904362    -1.2313433
O           3.7918277    -3.1197448    -1.7046115
C           4.0448355    -4.5234062    -1.7850893
H           5.1249025    -4.6249544    -1.9035649
H           3.5468707    -4.9703512    -2.6531301
H           3.7193804    -5.0311167    -0.8704726
C           5.8276462     1.0835027     0.1852742
H           6.6586812     1.7480536     0.3897100
C           6.0784115    -0.1027011    -0.6026584
N           4.9006455    -0.8661014    -0.7908640
H           5.0008657    -1.7180710    -1.3350324
C           3.6727574    -0.5526372    -0.2913866
N           3.4781546     0.5341252     0.4245485
C           4.5658924     1.3313105     0.6444785
H           4.3641734     2.2209904     1.2381768
O           7.1364555    -0.4828423    -1.0883262
25
430_C11H10N2O2_0-9-10-11 (165,) energy =    -685.1498765
C           2.5306611    -1.4528898    -0.5190942
C           1.2672209    -1.0053532    -0.0961139
H           1.2256978    -0.0327851     0.3797135
C           0.1181543    -1.7674896    -0.2676739
H          -0.8406297    -1.3899289     0.0739805
C           0.2110166    -3.0166686    -0.8797070
H          -0.6751804    -3.6284587    -1.0244884
C           1.4460154    -3.4927984    -1.3147469
H           1.5038375    -4.4625355    -1.7941422
C           2.6028781    -2.7237989    -1.1448837
O           3.8305042    -3.1652800    -1.5677293
C           4.0059580    -4.5403477    -1.9006942
H           5.0786102    -4.6726128    -2.0487341
H           3.4790712    -4.7962718    -2.8272815
H           3.6606188    -5.1884824    -1.0872494
C           5.8290301     1.1122601     0.1839920
H           6.6543323     1.7872082     0.3772333
C           6.1058458    -0.1269655    -0.5070444
N           4.9329834    -0.8998237    -0.6887065
H           5.0544591    -1.7861770    -1.1689841
C           3.6853756    -0.5473029    -0.2702463
N           3.4676490     0.5890413     0.3571567