32
458_C13H17NO_6-19-26-24 (-165,) energy =    -635.6094541
C           1.0207077     0.2576439    -0.3138834
C           2.2088764     0.5968754    -1.2148652
H           2.7872266     1.4461927    -0.8400664
H           1.9154804     0.8146592    -2.2441519
H           2.8709935    -0.2761011    -1.2310529
H           1.4528650    -0.0590150     0.6529878
N           0.0781393     1.3661826     0.0190618
C          -0.8479964     0.9560841     1.0894385
H          -1.4588605     1.8189593     1.3563825
H          -0.2887732     0.6684009     1.9950324
C           0.2126716    -0.9325141    -0.8592512
H          -0.2565767    -0.6336812    -1.8069112
H           0.9000839    -1.7575738    -1.0857619
C          -1.7155716    -0.2098607     0.6052305
H          -2.3911577    -0.5173714     1.4133373
H          -2.3431205     0.1413870    -0.2246294
C          -0.8559375    -1.3923677     0.1419100
H          -0.3569541    -1.8398305     1.0139087
H          -1.4817962    -2.1785023    -0.2978945
C           0.4466750     2.7167373     0.0569958
C           1.4568935     4.8554717    -3.5351749
H           1.6873136     5.4245053    -4.4320579
C           1.8462823     5.3358038    -2.2815119
H           2.3768956     6.2807462    -2.2011646
C           1.5397234     4.6130028    -1.1315720
H           1.8061294     4.9870304    -0.1483791
C           0.8755280     3.3807218    -1.2211985
C           0.4580715     2.9233194    -2.4790875
H          -0.1252295     2.0107953    -2.5456932
C           0.7518588     3.6544623    -3.6304676
H           0.4180528     3.2933969    -4.5996734
O           0.2546372     3.4057711     1.0553025
32
458_C13H17NO_6-19-26-24 (-150,) energy =    -635.6106618
C           1.0302431     0.3039233    -0.3197595
C           2.2038858     0.6984595    -1.2168101
H           2.7601686     1.5534690    -0.8228964
H           1.8999644     0.9333431    -2.2389538
H           2.8882240    -0.1566074    -1.2558076
H           1.4776531    -0.0404394     0.6298242
N           0.0698937     1.3721274     0.0752023
C          -0.8353990     0.9020175     1.1370730
H          -1.4579263     1.7421853     1.4433971
H          -0.2540265     0.5927223     2.0211667
C           0.2408527    -0.8833660    -0.9006382
H          -0.2494549    -0.5580999    -1.8286667
H           0.9432272    -1.6825134    -1.1700003
C          -1.6816713    -0.2672283     0.6223091
H          -2.3344674    -0.6238416     1.4290183
H          -2.3335038     0.0998792    -0.1816484
C          -0.8008619    -1.4080311     0.0974430
H          -0.2772275    -1.8780300     0.9428213
H          -1.4147123    -2.1911440    -0.3641276
C           0.2905487     2.7454442     0.0420354
C           1.5452761     4.7725336    -3.5370340
H           1.8414809     5.3121435    -4.4327313
C           1.9807039     5.2066605    -2.2816553
H           2.6149651     6.0852439    -2.1995356
C           1.5889785     4.5241627    -1.1322938
H           1.8889035     4.8712993    -0.1484928
C           0.7900321     3.3764390    -1.2272863
C           0.3423765     2.9567633    -2.4868856
H          -0.3172176     2.0970553    -2.5581608
C           0.7156439     3.6542859    -3.6365565
H           0.3536179     3.3284876    -4.6081527
O          -0.0471173     3.4764123     0.9711824
32
458_C13H17NO_6-19-26-24 (-135,) energy =    -635.6105146
C           1.0385631     0.3587891    -0.3208596
C           2.2074792     0.8007141    -1.2017590
H           2.7481157     1.6505930    -0.7766793
H           1.9035677     1.0638863    -2.2165874
H           2.9047031    -0.0424942    -1.2655311
H           1.4922625    -0.0285852     0.6078303
N           0.0796144     1.3955597     0.1430364
C          -0.8091323     0.8710271     1.1916897
H          -1.4261019     1.6950561     1.5473895
H          -0.2062361     0.5192129     2.0440988
C           0.2488425    -0.8052091    -0.9497585
H          -0.2544326    -0.4388867    -1.8551960
H           0.9520038    -1.5865128    -1.2656291
C          -1.6571656    -0.2780760     0.6335250
H          -2.2939744    -0.6810286     1.4312067
H          -2.3254086     0.1248935    -0.1392826
C          -0.7770511    -1.3840512     0.0359846
H          -0.2386193    -1.8944788     0.8480605
H          -1.3938951    -2.1459694    -0.4560992
C           0.1291978     2.7710065     0.0072718
C           1.5895038     4.7182496    -3.5400774
H           1.9395115     5.2354884    -4.4294732
C           2.0450626     5.1081127    -2.2775676
H           2.7501239     5.9296967    -2.1832921
C           1.5848055     4.4550095    -1.1358633
H           1.9041760     4.7749420    -0.1485394
C           0.6924927     3.3810699    -1.2472189
C           0.2328431     2.9991255    -2.5136103
H          -0.4820248     2.1854411    -2.6006522
C           0.6738090     3.6709049    -3.6549975
H           0.3012372     3.3771453    -4.6328143
O          -0.3678550     3.5238670     0.8443145
32
458_C13H17NO_6-19-26-24 (-120,) energy =    -635.6097649
C           1.0400793     0.3829207    -0.2523228
C           2.2209961     0.8402538    -1.1095083
H           2.7617273     1.6725540    -0.6510141
H           1.9307487     1.1361429    -2.1189568
H           2.9126165    -0.0060865    -1.1912487
H           1.4834731    -0.0490230     0.6599831
N           0.1057057     1.4147253     0.2621683
C          -0.7855746     0.8662021     1.2958498
H          -1.3819188     1.6890420     1.6872234
H          -0.1745107     0.4676724     2.1198173
C           0.2256070    -0.7405247    -0.9244764
H          -0.2748614    -0.3283828    -1.8115870
H           0.9109958    -1.5224983    -1.2760545
C          -1.6609819    -0.2447043     0.7007596
H          -2.2951764    -0.6723190     1.4876992
H          -2.3320629     0.2028240    -0.0446455
C          -0.8059078    -1.3387224     0.0452176
H          -0.2713673    -1.8950847     0.8293364
H          -1.4417385    -2.0664486    -0.4737595
C          -0.0156857     2.7580137    -0.0185593
C           1.6380558     4.6244182    -3.5277105
H           2.0369622     5.1201228    -4.4086578
C           2.0943202     4.9808694    -2.2560289
H           2.8488243     5.7552275    -2.1456756
C           1.5742617     4.3544589    -1.1243678
H           1.9025424     4.6502805    -0.1320574
C           0.6148242     3.3432938    -1.2555279
C           0.1553218     2.9939297    -2.5309915
H          -0.6055759     2.2248517    -2.6364816
C           0.6601904     3.6373496    -3.6623662
H           0.2895213     3.3675247    -4.6477948
O          -0.6770770     3.5130105     0.6947214
32
458_C13H17NO_6-19-26-24 (-105,) energy =    -635.6090221
C           1.0942953     0.3707787    -0.2480173
C           2.2716184     0.8457166    -1.1008832
H           2.8228956     1.6560687    -0.6164081
H           1.9756563     1.1797118    -2.0965699
H           2.9546444    -0.0034047    -1.2191161
H           1.5411202    -0.0941948     0.6445826
N           0.1794115     1.3951915     0.3140859
C          -0.7004141     0.8197092     1.3442727
H          -1.2829995     1.6335700     1.7730081
H          -0.0714427     0.3869434     2.1352085
C           0.2559594    -0.7191532    -0.9471930
H          -0.2521323    -0.2689093    -1.8112984
H           0.9248213    -1.4970222    -1.3377640
C          -1.6005281    -0.2609405     0.7291807
H          -2.2229814    -0.7116693     1.5126287
H          -2.2823638     0.2211140     0.0159099
C          -0.7688302    -1.3386168     0.0172556
H          -0.2291179    -1.9310364     0.7709277
H          -1.4221184    -2.0386319    -0.5179523
C          -0.1054446     2.6793693    -0.0916037
C           1.6780294     4.5893036    -3.5158321
H           2.1085130     5.0947986    -4.3760533
C           2.1423271     4.8751384    -2.2298674
H           2.9339076     5.6059179    -2.0866214
C           1.5862688     4.2317628    -1.1244020
H           1.9321766     4.4694717    -0.1221461
C           0.5745137     3.2801132    -1.2970407
C           0.1018662     3.0068102    -2.5861524
H          -0.7015521     2.2876591    -2.7247896
C           0.6513959     3.6596087    -3.6908873
H           0.2753947     3.4434312    -4.6874542
O          -0.9226092     3.3815926     0.5042672
32
458_C13H17NO_6-19-26-24 (-90,) energy =    -635.6088566
C           1.1216272     0.3796264    -0.2332464
C           2.2805805     0.8466108    -1.1147963
H           2.8464511     1.6560242    -0.6464941
H           1.9610730     1.1788562    -2.1040828
H           2.9566812    -0.0059220    -1.2478978
H           1.5831938    -0.0711237     0.6579596
N           0.2099662     1.4099303     0.3275677
C          -0.6551734     0.8379394     1.3743478
H          -1.2348388     1.6505212     1.8091416
H          -0.0069826     0.4106031     2.1515222
C           0.2741561    -0.7195347    -0.9089941
H          -0.2428084    -0.2784011    -1.7728130
H           0.9386986    -1.5015690    -1.2988401
C          -1.5661082    -0.2457676     0.7820655
H          -2.1814254    -0.6886734     1.5754834
H          -2.2535752     0.2341425     0.0732314
C          -0.7416300    -1.3297395     0.0710995
H          -0.1951086    -1.9171176     0.8238805
H          -1.4004152    -2.0332470    -0.4527307
C          -0.2084941     2.6092668    -0.2063755
C           1.7095938     4.6240589    -3.4953891
H           2.1713101     5.1567933    -4.3223333
C           2.1732834     4.8145699    -2.1921895
H           2.9944007     5.5003613    -2.0006901
C           1.5814606     4.1300301    -1.1302450
H           1.9373335     4.2870920    -0.1154625
C           0.5260172     3.2408849    -1.3639437
C           0.0464217     3.0730245    -2.6685815
H          -0.7970485     2.4122908    -2.8518285
C           0.6421761     3.7549987    -3.7303791
H           0.2670186     3.6132465    -4.7405020
O          -1.1720786     3.2216172     0.2537255
32
458_C13H17NO_6-19-26-24 (-75,) energy =    -635.6092901
C           1.1263080     0.3797023    -0.2070621
C           2.2554685     0.8196262    -1.1390324
H           2.8405841     1.6387918    -0.7146041
H           1.9004202     1.1268506    -2.1248687
H           2.9232430    -0.0390559    -1.2746549
H           1.6113081    -0.0188497     0.6959810
N           0.2026697     1.4231996     0.3155129
C          -0.6528727     0.8779275     1.3860526
H          -1.2430793     1.6967084     1.7947697
H           0.0091158     0.4917310     2.1728839
C           0.2882250    -0.7635067    -0.8211613
H          -0.2406897    -0.3706161    -1.7011515
H           0.9622610    -1.5523519    -1.1797633
C          -1.5538052    -0.2415296     0.8497695
H          -2.1596995    -0.6550457     1.6659942
H          -2.2487645     0.1977490     0.1231134
C          -0.7138435    -1.3445677     0.1893315
H          -0.1562021    -1.8871545     0.9672891
H          -1.3612423    -2.0826871    -0.3000002
C          -0.3105634     2.5264743    -0.3377052
C           1.7481416     4.7013015    -3.4305041
H           2.2438357     5.2760781    -4.2082027
C           2.2050840     4.7644702    -2.1128788
H           3.0531254     5.3954107    -1.8600421
C           1.5733243     4.0204411    -1.1156161
H           1.9277119     4.0717087    -0.0895120
C           0.4774342     3.2072068    -1.4282757
C          -0.0010542     3.1774069    -2.7439474
H          -0.8808765     2.5849943    -2.9800124
C           0.6425483     3.9070261    -3.7434451
H           0.2729471     3.8655654    -4.7646110
O          -1.3895656     3.0243591    -0.0170484
32
458_C13H17NO_6-19-26-24 (-60,) energy =    -635.6099674
C           1.1288293     0.3646900    -0.2148539
C           2.2131028     0.7584992    -1.2177057
H           2.8230522     1.5915122    -0.8624984
H           1.8076865     1.0248656    -2.1968185
H           2.8692986    -0.1093113    -1.3509141
H           1.6481685     0.0450475     0.7004094
N           0.1900317     1.4253872     0.2497857
C          -0.6585451     0.9291388     1.3507528
H          -1.2677579     1.7596133     1.7058744
H           0.0137558     0.6150688     2.1609885
C           0.3086757    -0.8407044    -0.7291738
H          -0.2400094    -0.5261133    -1.6284680
H           0.9988148    -1.6362325    -1.0390619
C          -1.5360193    -0.2463486     0.9056201
H          -2.1280835    -0.6101823     1.7550900
H          -2.2424041     0.1204267     0.1513083
C          -0.6685776    -1.3735128     0.3293765
H          -0.0913306    -1.8377270     1.1431054
H          -1.2950942    -2.1660179    -0.0981894
C          -0.3835978     2.4314393    -0.5115166
C           1.7865730     4.8065122    -3.3669349
H           2.3097254     5.4338051    -4.0837532
C           2.2425399     4.7171069    -2.0505597
H           3.1156015     5.2831408    -1.7365925
C           1.5767681     3.9032523    -1.1330226
H           1.9273272     3.8350850    -0.1069127
C           0.4433746     3.1789987    -1.5232143
C          -0.0342858     3.3063028    -2.8337833
H          -0.9435306     2.7855112    -3.1197582
C           0.6465499     4.0987994    -3.7567872
H           0.2794029     4.1767330    -4.7766623
O          -1.5390862     2.8086733    -0.3185898
32
458_C13H17NO_6-19-26-24 (-45,) energy =    -635.6100535
C           1.1379777     0.3592196    -0.2125523
C           2.1807935     0.7042734    -1.2758236
H           2.8098714     1.5483702    -0.9886787
H           1.7308509     0.9291987    -2.2466574
H           2.8273606    -0.1716048    -1.4017266
H           1.6853500     0.1202811     0.7111590
N           0.1789866     1.4310308     0.1871592
C          -0.6768767     0.9832591     1.3042659
H          -1.3123813     1.8199724     1.5946714
H          -0.0065917     0.7482747     2.1430504
C           0.3469054    -0.9038139    -0.6285718
H          -0.2130077    -0.6727254    -1.5461413
H           1.0594102    -1.6995204    -0.8822868
C          -1.5191819    -0.2456873     0.9463692
H          -2.1071853    -0.5577150     1.8190420
H          -2.2276890     0.0409413     0.1607928
C          -0.6138121    -1.3865689     0.4668057
H          -0.0252772    -1.7655580     1.3159427
H          -1.2111275    -2.2308661     0.1009392
C          -0.4293159     2.3430712    -0.6704793
C           1.8110765     4.9215445    -3.2825300
H           2.3535127     5.5969559    -3.9388270
C           2.2749325     4.6816710    -1.9878337
H           3.1723784     5.1788911    -1.6293270
C           1.5848718     3.8056882    -1.1490874
H           1.9345510     3.6256681    -0.1368521
C           0.4165970     3.1736017    -1.5943845
C          -0.0645106     3.4492374    -2.8813958
H          -0.9958353     2.9930710    -3.2028673
C           0.6395628     4.3030644    -3.7280301
H           0.2686271     4.4975009    -4.7308104
O          -1.6318774     2.5941356    -0.5972911
32
458_C13H17NO_6-19-26-24 (-30,) energy =    -635.6090467
C           1.1504659     0.3264979    -0.2225454
C           2.1636218     0.6192125    -1.3300585
H           2.8071746     1.4701101    -1.1031496
H           1.6817005     0.8049733    -2.2946472
H           2.8013479    -0.2648937    -1.4410107
H           1.7156534     0.1544647     0.7055774
N           0.1813113     1.4126141     0.1155044
C          -0.6951216     1.0144475     1.2364452
H          -1.3524325     1.8559733     1.4594025
H          -0.0383730     0.8529827     2.1033392
C           0.3796177    -0.9746993    -0.5524384
H          -0.1849751    -0.8143656    -1.4821294
H           1.1071437    -1.7714767    -0.7551319
C          -1.5082982    -0.2536585     0.9580043
H          -2.0979124    -0.5144100     1.8464618
H          -2.2130926    -0.0400402     0.1469652
C          -0.5728160    -1.4038285     0.5706218
H           0.0196934    -1.7047627     1.4479252
H          -1.1458911    -2.2875510     0.2638446
C          -0.4387251     2.2378885    -0.8289780
C           1.8211244     5.0146041    -3.2140668
H           2.3705220     5.7333807    -3.8163885
C           2.3089473     4.6325241    -1.9629675
H           3.2323386     5.0622556    -1.5837490
C           1.6088728     3.7028243    -1.1935368
H           1.9691853     3.4228317    -0.2088605
C           0.4048730     3.1599547    -1.6619755
C          -0.0924176     3.5697856    -2.9074372
H          -1.0421532     3.1682617    -3.2462224
C           0.6176544     4.4816782    -3.6846841
H           0.2300898     4.7844626    -4.6537320
O          -1.6618720     2.3627129    -0.8690066
32
458_C13H17NO_6-19-26-24 (-15,) energy =    -635.6073366
C           1.2624694    -0.4014797    -0.4638587
C           2.1918901    -0.7869339    -1.6161421
H           3.0121472    -0.0662179    -1.7070826
H           1.6627916    -0.8334057    -2.5689160
H           2.6274039    -1.7707854    -1.4076330
H           1.8480319    -0.5016818     0.4636865
N           0.8906461     1.0394462    -0.4668886
C           0.1699641     1.4004748     0.7737653
H          -0.1228554     2.4493433     0.7360739
H           0.8613812     1.2766591     1.6189503
C           0.0339315    -1.3183183    -0.3273045
H          -0.5885772    -1.2038796    -1.2215116
H           0.3640730    -2.3646776    -0.2872329
C          -1.0858134     0.5345030     0.9819851
H          -1.5502289     0.8040765     1.9398214
H          -1.8118715     0.7782159     0.1944729
C          -0.7617176    -0.9645763     0.9383127
H          -0.1680393    -1.2315686     1.8256643
H          -1.6850838    -1.5542829     0.9923156
C           0.4428456     1.6071385    -1.6705125
C           0.8915861     5.8255629    -2.5167272
H           0.9833392     6.8816433    -2.7564581
C           1.1266779     5.3786386    -1.2158127
H           1.4070404     6.0846720    -0.4386898
C           1.0103193     4.0240050    -0.9042697
H           1.2544743     3.7010100     0.1003225
C           0.6650624     3.0884521    -1.8929384
C           0.4136479     3.5558871    -3.1937324
H           0.1190698     2.8331259    -3.9462377
C           0.5412428     4.9062660    -3.5077143
H           0.3582968     5.2430810    -4.5246410
O           0.0678199     0.9135868    -2.6121556
32
458_C13H17NO_6-19-26-24 (0,) energy =    -635.6114640
C           1.2785658    -0.4106482    -0.4287942
C           2.2638224    -0.8418865    -1.5167455
H           3.0956429    -0.1321248    -1.5863899
H           1.7865747    -0.9136446    -2.4945955
H           2.6770529    -1.8219787    -1.2521980
H           1.8115028    -0.4909104     0.5316758
N           0.9193301     1.0313696    -0.4929411
C           0.1545694     1.4398766     0.7057956
H          -0.1120972     2.4938711     0.6275608
H           0.8072068     1.3250807     1.5823923
C           0.0292385    -1.3042068    -0.3324122
H          -0.5454097    -1.2014945    -1.2597370
H           0.3377208    -2.3547136    -0.2512638
C          -1.1228681     0.5989300     0.8789524
H          -1.6243677     0.8970847     1.8091743
H          -1.8100700     0.8359464     0.0552430
C          -0.8222483    -0.9062855     0.8833473
H          -0.2778186    -1.1625157     1.8047599
H          -1.7572731    -1.4794848     0.9046861
C           0.5399928     1.5731148    -1.7265797
C           0.8090014     5.8231756    -2.4449548
H           0.8600421     6.8897841    -2.6474196
C           1.2410755     5.3224548    -1.2155138
H           1.6372930     5.9965326    -0.4607627
C           1.1746077     3.9545080    -0.9518534
H           1.5641228     3.5775321    -0.0129159
C           0.6851351     3.0643844    -1.9205598
C           0.2481833     3.5810487    -3.1503326
H          -0.1388111     2.8860205    -3.8874708
C           0.3174950     4.9464318    -3.4148705
H          -0.0166344     5.3282601    -4.3759028
O           0.2544508     0.8677064    -2.6913836
32
458_C13H17NO_6-19-26-24 (15,) energy =    -635.6145649
C           1.2976548    -0.4284261    -0.3974053
C           2.3312694    -0.9020182    -1.4211444
H           3.1786078    -0.2085079    -1.4617378
H           1.9066520    -0.9878531    -2.4213450
H           2.7119010    -1.8819284    -1.1105166
H           1.7780543    -0.4970149     0.5910552
N           0.9578800     1.0149585    -0.5101086
C           0.1633109     1.4640064     0.6527302
H          -0.0648492     2.5252336     0.5525216
H           0.7796226     1.3399742     1.5536937
C           0.0256115    -1.2933434    -0.3470229
H          -0.5004343    -1.1952517    -1.3035714
H           0.3049056    -2.3489246    -0.2331295
C          -1.1403530     0.6568239     0.7831355
H          -1.6747130     0.9781372     1.6868809
H          -1.7856250     0.8986595    -0.0725669
C          -0.8745929    -0.8553134     0.8198263
H          -0.3803570    -1.1101898     1.7694776
H          -1.8224381    -1.4072155     0.8048697
C           0.6557207     1.5435988    -1.7649314
C           0.7323666     5.8125204    -2.3787724
H           0.7441290     6.8850059    -2.5545242
C           1.3335455     5.2843594    -1.2344950
H           1.8235311     5.9431611    -0.5224755
C           1.3155363     3.9087520    -1.0049837
H           1.8201061     3.5020927    -0.1345840
C           0.7049833     3.0426728    -1.9245817
C           0.1114834     3.5827738    -3.0747252
H          -0.3482878     2.9017549    -3.7831316
C           0.1244056     4.9570811    -3.3009146
H          -0.3395280     5.3622034    -4.1962429
O           0.4742598     0.8385487    -2.7553627
32
458_C13H17NO_6-19-26-24 (30,) energy =    -635.6161259
C           1.3035252    -0.4320450    -0.3780147
C           2.3767455    -0.9453605    -1.3400436
H           3.2344359    -0.2639245    -1.3599073
H           1.9991173    -1.0522379    -2.3564204
H           2.7291693    -1.9204498    -0.9836823
H           1.7326111    -0.4939010     0.6340146
N           0.9865720     1.0124055    -0.5285572
C           0.1699563     1.4978356     0.6012917
H          -0.0238872     2.5637312     0.4819155
H           0.7525808     1.3680780     1.5234541
C           0.0096538    -1.2653210    -0.3771948
H          -0.4714897    -1.1612483    -1.3570514
H           0.2554505    -2.3269611    -0.2449528
C          -1.1564914     0.7232086     0.6943376
H          -1.7122203     1.0610954     1.5788637
H          -1.7677353     0.9763218    -0.1828631
C          -0.9288771    -0.7954363     0.7470668
H          -0.4821448    -1.0576549     1.7178922
H          -1.8888277    -1.3236055     0.6942536
C           0.7752642     1.5413784    -1.7959775
C           0.6604558     5.8141676    -2.3422737
H           0.6344470     6.8885036    -2.5046092
C           1.4082495     5.2839071    -1.2888826
H           1.9745077     5.9431726    -0.6363654
C           1.4371990     3.9056251    -1.0760818
H           2.0372949     3.4917762    -0.2711165
C           0.7253249     3.0428505    -1.9219816
C          -0.0046724     3.5821822    -2.9899300
H          -0.5267534     2.9028250    -3.6560246
C          -0.0451524     4.9598201    -3.1934522
H          -0.6212460     5.3680879    -4.0195229
O           0.7097057     0.8499932    -2.8103263
32
458_C13H17NO_6-19-26-24 (45,) energy =    -635.6160717
C           1.3087698    -0.4551156    -0.3550860
C           2.4151160    -1.0017334    -1.2595392
H           3.2897926    -0.3423420    -1.2411041
H           2.0870176    -1.1057440    -2.2929145
H           2.7240644    -1.9822537    -0.8782419
H           1.6860471    -0.5208765     0.6768981
N           1.0222759     0.9932049    -0.5280504
C           0.1822994     1.5040121     0.5710823
H           0.0316945     2.5766003     0.4498672
H           0.7255277     1.3506140     1.5131707
C          -0.0053035    -1.2544548    -0.4127445
H          -0.4373077    -1.1413651    -1.4146651
H           0.2049767    -2.3220062    -0.2676003
C          -1.1683037     0.7678562     0.6072983
H          -1.7524652     1.1186081     1.4680400
H          -1.7339728     1.0391968    -0.2947367
C          -0.9831004    -0.7570640     0.6661649
H          -0.5888678    -1.0313831     1.6561820
H          -1.9530728    -1.2598619     0.5684705
C           0.9005962     1.5341612    -1.7971855
C           0.5815617     5.7998709    -2.2986832
H           0.5113451     6.8734154    -2.4526305
C           1.4774280     5.2860103    -1.3588544
H           2.1137791     5.9569352    -0.7878204
C           1.5632298     3.9083557    -1.1556688
H           2.2654582     3.5046739    -0.4314111
C           0.7571397     3.0327355    -1.8961544
C          -0.1152093     3.5536019    -2.8604659
H          -0.7016706     2.8659224    -3.4619350
C          -0.2146329     4.9308619    -3.0492036
H          -0.9051517     5.3269443    -3.7889930
O           0.9474528     0.8667820    -2.8280854
32
458_C13H17NO_6-19-26-24 (60,) energy =    -635.6148115
C           1.3084758    -0.4769495    -0.3317969
C           2.4408733    -1.0531201    -1.1840835
H           3.3260759    -0.4097104    -1.1390449
H           2.1548867    -1.1642941    -2.2289399
H           2.7152502    -2.0336650    -0.7768123
H           1.6387729    -0.5448402     0.7160021
N           1.0472437     0.9733693    -0.5224232
C           0.1817986     1.5064263     0.5426533
H           0.0619050     2.5820471     0.4126056
H           0.6858141     1.3440564     1.5048892
C          -0.0187772    -1.2488405    -0.4430495
H          -0.4065961    -1.1279967    -1.4625582
H           0.1623808    -2.3205172    -0.2898504
C          -1.1841215     0.7985276     0.5293561
H          -1.7926579     1.1601500     1.3683704
H          -1.7103351     1.0817536    -0.3926692
C          -1.0313645    -0.7302324     0.5934460
H          -0.6855283    -1.0131793     1.5988624
H          -2.0062734    -1.2131648     0.4537377
C           1.0356304     1.5376004    -1.7822644
C           0.5263898     5.7880842    -2.2683138
H           0.4115687     6.8576238    -2.4230729
C           1.5489119     5.3051207    -1.4494997
H           2.2385549     5.9969052    -0.9730557
C           1.6919634     3.9319869    -1.2455382
H           2.4867462     3.5532636    -0.6082229
C           0.8147374     3.0304437    -1.8627765
C          -0.1863185     3.5196194    -2.7113860
H          -0.8317856     2.8161016    -3.2291771
C          -0.3415126     4.8924742    -2.8979904
H          -1.1313353     5.2638170    -3.5455644
O           1.2126989     0.9032769    -2.8191090
32
458_C13H17NO_6-19-26-24 (75,) energy =    -635.6130755
C           1.2816557    -0.4750930    -0.3474616
C           2.4342392    -1.0745693    -1.1555970
H           3.3325163    -0.4539972    -1.0743461
H           2.1900644    -1.1771945    -2.2117551
H           2.6662516    -2.0622311    -0.7387630
H           1.5678039    -0.5544618     0.7125198
N           1.0469843     0.9794254    -0.5403236
C           0.1521328     1.5209123     0.4934927
H           0.0606485     2.5998696     0.3678496
H           0.6146774     1.3408231     1.4734495
C          -0.0545471    -1.2216384    -0.5158236
H          -0.3993830    -1.0892558    -1.5497171
H           0.1015117    -2.2972093    -0.3623862
C          -1.2248838     0.8394969     0.4218996
H          -1.8596939     1.2060961     1.2389087
H          -1.7090519     1.1380992    -0.5181145
C          -1.1000120    -0.6919373     0.4815905
H          -0.7990018    -0.9861904     1.4980834
H          -2.0759703    -1.1585445     0.3002270
C           1.1540132     1.5806714    -1.7747056
C           0.4526584     5.8109427    -2.2324400
H           0.2900742     6.8750532    -2.3812754
C           1.5882334     5.3639359    -1.5545050
H           2.3164179     6.0787516    -1.1803060
C           1.7953824     3.9974750    -1.3597717
H           2.6791073     3.6493701    -0.8312733
C           0.8667825     3.0663703    -1.8417575
C          -0.2551123     3.5191328    -2.5471910
H          -0.9531797     2.7970149    -2.9620425
C          -0.4686350     4.8855244    -2.7280189
H          -1.3485560     5.2275443    -3.2664560
O           1.4770812     0.9922969    -2.8025027
32
458_C13H17NO_6-19-26-24 (90,) energy =    -635.6117035
C           1.2746665    -0.4884630    -0.3266242
C           2.4386929    -1.1110445    -1.1003448
H           3.3459009    -0.5074222    -1.0037678
H           2.2216188    -1.2205896    -2.1618670
H           2.6394084    -2.0992363    -0.6680818
H           1.5329948    -0.5624112     0.7411758
N           1.0469612     0.9650758    -0.5362409
C           0.1257544     1.5149155     0.4673095
H           0.0443931     2.5936375     0.3347207
H           0.5589214     1.3369292     1.4615465
C          -0.0611793    -1.2300442    -0.5229722
H          -0.3788020    -1.1055910    -1.5669280
H           0.0878101    -2.3047991    -0.3573956
C          -1.2517675     0.8398173     0.3644321
H          -1.9057114     1.2152451     1.1620263
H          -1.7106734     1.1317978    -0.5900406
C          -1.1327781    -0.6910312     0.4403829
H          -0.8605984    -0.9775187     1.4670830
H          -2.1040463    -1.1577090     0.2356131
C           1.2879572     1.6008822    -1.7312282
C           0.4237322     5.8024094    -2.2166190
H           0.2207796     6.8587348    -2.3710168
C           1.6431014     5.3947089    -1.6725569
H           2.3947913     6.1330620    -1.4059969
C           1.9047895     4.0382045    -1.4751070
H           2.8572891     3.7222995    -1.0577344
C           0.9445757     3.0765461    -1.8126469
C          -0.2694178     3.4897759    -2.3756853
H          -1.0062513     2.7473664    -2.6716885
C          -0.5310725     4.8466083    -2.5692154
H          -1.4781864     5.1564391    -3.0030437
O           1.7796723     1.0579403    -2.7159657
32
458_C13H17NO_6-19-26-24 (105,) energy =    -635.6111548
C           1.2376218    -0.4941653    -0.3664740