30
336_C12H18_16-17-18-24 (-165,) energy =    -468.1217736
C           2.5169046    -1.4541220    -0.8507799
C           1.2370026    -0.5990489    -0.7307941
H           0.9636214    -0.4200565     0.3150174
H           0.3931330    -1.1075024    -1.2132726
H           1.3681024     0.3762443    -1.2120554
C           2.3067014    -2.8346158    -0.2004743
H           3.1906611    -3.4721704    -0.3081701
H           2.0987115    -2.7399459     0.8716689
H           1.4543607    -3.3518816    -0.6573425
H           2.6720504    -1.6054375    -1.9216513
C           5.6323683     1.0251853     0.8625136
H           6.3709587     1.7039046     1.2812755
C           4.6015371     0.5231970     1.6498829
H           4.5166349     0.7955748     2.6986838
C           3.6609958    -0.3200747     1.0653397
H           2.8328544    -0.6795500     1.6710302
C           3.7281588    -0.7044433    -0.2822223
C           4.8095722    -0.2404269    -1.0787873
C           5.1260050    -0.7929468    -2.4858275
H           4.3809801    -0.4225899    -3.2055344
C           5.1095139    -2.3443856    -2.5183426
H           4.1515111    -2.7930528    -2.2607435
H           5.8575022    -2.7373443    -1.8193168
H           5.3749250    -2.6962047    -3.5223154
C           6.5299362    -0.4112994    -2.9955616
H           6.6655230     0.6694411    -3.1149533
H           6.6975286    -0.8660502    -3.9777867
H           7.3067852    -0.7804412    -2.3173880
C           5.7313851     0.6307761    -0.4707734
H           6.5671422     1.0094873    -1.0466437
30
336_C12H18_16-17-18-24 (-150,) energy =    -468.1156811
C           2.5201972    -1.4589490    -0.8187735
C           1.1980495    -0.7058611    -0.5540529
H           0.9620138    -0.6429458     0.5137405
H           0.3663276    -1.2266314    -1.0442208
H           1.2398863     0.3155419    -0.9474891
C           2.4510361    -2.8863679    -0.2448816
H           3.3500165    -3.4628660    -0.4847572
H           2.3530657    -2.8650202     0.8470440
H           1.5833161    -3.4249757    -0.6451300
H           2.5944893    -1.5293433    -1.9042376
C           5.5663814     1.1688608     0.7922881
H           6.2736741     1.8958531     1.1830643
C           4.5680301     0.6380466     1.6024552
H           4.4781172     0.9294048     2.6456891
C           3.6624464    -0.2549367     1.0414845
H           2.8534696    -0.6335503     1.6606110
C           3.7286528    -0.6667636    -0.3005032
C           4.8015387    -0.2018830    -1.1103989
C           5.1872825    -0.7517441    -2.5108635
H           4.6439333    -0.1904859    -3.2863310
C           4.8920434    -2.2596329    -2.7175130
H           3.8358721    -2.5152038    -2.7825944
H           5.3330090    -2.8492499    -1.9050802
H           5.3531658    -2.5933314    -3.6536629
C           6.7024995    -0.6175430    -2.7942550
H           7.0433053     0.4193428    -2.8711577
H           6.9394750    -1.0962941    -3.7501668
H           7.2891121    -1.1110457    -2.0114957
C           5.6767380     0.7360108    -0.5262380
H           6.4918352     1.1385428    -1.1146660
30
336_C12H18_16-17-18-24 (-135,) energy =    -468.1169231
C           2.7412815    -1.7781091    -0.6211367
C           1.3683476    -1.1619518    -0.9550811
H           0.9293044    -0.6691284    -0.0795076
H           0.6663210    -1.9351354    -1.2907783
H           1.4510890    -0.4097272    -1.7480112
C           2.5992777    -2.9028281     0.4256289
H           3.5731814    -3.3441231     0.6645847
H           2.1542090    -2.5504416     1.3625102
H           1.9519838    -3.6979110     0.0358482
H           3.1057277    -2.2634220    -1.5211233
C           5.4783224     1.2343094     0.9222855
H           6.1541368     1.9848962     1.3239834
C           4.3659016     0.8106566     1.6468674
H           4.1528031     1.2159359     2.6325592
C           3.5268776    -0.1392279     1.0820795
H           2.6589670    -0.4659163     1.6479963
C           3.7476868    -0.7040580    -0.1903538
C           4.8775273    -0.2779665    -0.9340839
C           5.2402210    -0.5653625    -2.4159173
H           5.1386238     0.4197047    -2.8983367
C           4.3903430    -1.5133385    -3.2755360
H           3.3324571    -1.2372473    -3.2933323
H           4.4782991    -2.5600037    -2.9629820
H           4.7548758    -1.4585903    -4.3083926
C           6.7268960    -0.9609165    -2.5797674
H           7.4151606    -0.2523170    -2.1147099
H           6.9831634    -1.0213509    -3.6439571
H           6.9169043    -1.9457791    -2.1342912
C           5.7030525     0.7029988    -0.3401586
H           6.5440903     1.0897183    -0.9076487
30
336_C12H18_16-17-18-24 (-120,) energy =    -468.1201786
C           2.7900473    -1.7834353    -0.6359147
C           1.3712411    -1.2428263    -0.9011901
H           0.9357060    -0.8003218     0.0024498
H           0.7049913    -2.0490042    -1.2318332
H           1.3785527    -0.4679263    -1.6761352
C           2.7575427    -2.9318228     0.3939282
H           3.7632369    -3.3265071     0.5760786
H           2.3459489    -2.6125962     1.3578442
H           2.1310464    -3.7530211     0.0247581
H           3.1450762    -2.2257213    -1.5628218
C           5.4476995     1.3206253     0.8653092
H           6.1089823     2.0877590     1.2597261
C           4.3410735     0.8859331     1.5945668
H           4.1201076     1.3016639     2.5741722
C           3.5203209    -0.0899918     1.0466989
H           2.6614735    -0.4281234     1.6203092
C           3.7537370    -0.6684789    -0.2174002
C           4.8682303    -0.2225713    -0.9666757
C           5.2745859    -0.5636107    -2.4199434
H           5.4048299     0.4259792    -2.8829014
C           4.3133082    -1.3069288    -3.3600310
H           3.2974667    -0.9009623    -3.3292441
H           4.2673378    -2.3826350    -3.1590776
H           4.6800507    -1.1948522    -4.3875785
C           6.6670312    -1.2323883    -2.4642202
H           7.4173702    -0.6573855    -1.9145350
H           7.0105217    -1.3346841    -3.5007730
H           6.6305183    -2.2362732    -2.0223911
C           5.6818667     0.7768520    -0.3898274
H           6.5221124     1.1549892    -0.9680997
30
336_C12H18_16-17-18-24 (-105,) energy =    -468.1228285
C           2.8620508    -1.8071385    -0.6422382
C           1.4180726    -1.3488043    -0.9241778
H           0.9517178    -0.9269644    -0.0259312
H           0.8008212    -2.1931426    -1.2544527
H           1.3874083    -0.5794882    -1.7035867
C           2.8813817    -2.9449409     0.3996473
H           3.9045782    -3.2845928     0.5946052
H           2.4456411    -2.6354895     1.3561607
H           2.3013297    -3.8017191     0.0354989
H           3.2541959    -2.2368643    -1.5622114
C           5.3909291     1.4099541     0.8381500
H           6.0294407     2.1968744     1.2310132
C           4.2881083     0.9578882     1.5621778
H           4.0463687     1.3829938     2.5328428
C           3.4994185    -0.0519560     1.0253675
H           2.6477232    -0.4075794     1.5994364
C           3.7628061    -0.6415260    -0.2259039
C           4.8624978    -0.1648259    -0.9768517
C           5.2921780    -0.5565728    -2.4055482
H           5.6416564     0.3936626    -2.8329195
C           4.2449080    -1.0671665    -3.4111297
H           3.2970912    -0.5251464    -3.3303163
H           4.0394470    -2.1378112    -3.3144690
H           4.6286086    -0.9134815    -4.4268968
C           6.5294269    -1.4791527    -2.3802097
H           7.3328711    -1.0506335    -1.7725691
H           6.9152411    -1.6389609    -3.3946334
H           6.2800345    -2.4606165    -1.9573041
C           5.6504769     0.8574036    -0.4096174
H           6.4918792     1.2385746    -0.9855701
30
336_C12H18_16-17-18-24 (-90,) energy =    -468.1257103
C           2.9964701    -1.8572279    -0.6332141
C           1.5454446    -1.4829189    -0.9913401
H           1.0259867    -1.0487218    -0.1287563
H           0.9821534    -2.3693218    -1.3078657
H           1.5099118    -0.7489034    -1.8032377
C           3.0253857    -2.9587789     0.4463735
H           4.0541316    -3.2342219     0.7031648
H           2.5245175    -2.6442035     1.3687252
H           2.5117366    -3.8574134     0.0836459
H           3.4547629    -2.2959734    -1.5208160
C           5.3538795     1.5025160     0.8069971
H           5.9576758     2.3212284     1.1897033
C           4.2650196     1.0205578     1.5310495
H           3.9998208     1.4557706     2.4910800
C           3.5216036    -0.0350784     1.0130018
H           2.6832591    -0.4161795     1.5905647
C           3.8209183    -0.6349163    -0.2224063
C           4.9025765    -0.1235146    -0.9780444
C           5.3119634    -0.5491976    -2.3979687
H           5.8763286     0.3146112    -2.7751995
C           4.1921633    -0.7536842    -3.4358121
H           3.4384999     0.0381414    -3.3658666
H           3.6810263    -1.7162261    -3.3495554
H           4.6253217    -0.7133409    -4.4425006
C           6.3238835    -1.7136034    -2.3826675
H           7.1762124    -1.4799523    -1.7360931
H           6.7037003    -1.9110783    -3.3927507
H           5.8688168    -2.6401240    -2.0104588
C           5.6462842     0.9383184    -0.4305595
H           6.4764410     1.3407112    -1.0079581
30
336_C12H18_16-17-18-24 (-75,) energy =    -468.1282057
C           3.0437212    -1.8910984    -0.6496735
C           1.5693984    -1.5524388    -0.9451707
H           1.0617606    -1.1706914    -0.0516498
H           1.0268578    -2.4447756    -1.2806694
H           1.4853194    -0.7882832    -1.7255153
C           3.1496751    -3.0216248     0.3935494
H           4.1954894    -3.2851532     0.5864467
H           2.6965634    -2.7382914     1.3502153
H           2.6315693    -3.9198034     0.0360460
H           3.4762849    -2.2840372    -1.5710302
C           5.2465733     1.5857580     0.7645145
H           5.8007742     2.4450399     1.1330530
C           4.1902773     1.0506351     1.4983896
H           3.9019260     1.4838518     2.4526508
C           3.5064706    -0.0531989     0.9970276
H           2.6881440    -0.4689790     1.5795612
C           3.8375879    -0.6517330    -0.2299340
C           4.8993883    -0.0995405    -0.9865648
C           5.3557786    -0.5786812    -2.3711320
H           6.0817746     0.1780947    -2.6979682
C           4.2677252    -0.5755594    -3.4628363
H           3.7418696     0.3854373    -3.4828016
H           3.5196645    -1.3627876    -3.3350102
H           4.7314312    -0.7252222    -4.4455613
C           6.1505494    -1.9002644    -2.3215779
H           6.9781926    -1.8258269    -1.6080194
H           6.5713437    -2.1303047    -3.3082147
H           5.5294091    -2.7515163    -2.0210095
C           5.5793480     1.0129114    -0.4597626
H           6.3944960     1.4440311    -1.0372820
30
336_C12H18_16-17-18-24 (-60,) energy =    -468.1285559
C           3.0460859    -1.8848331    -0.6509275
C           1.5420991    -1.5774033    -0.7951613
H           1.0931986    -1.2836550     0.1603929
H           1.0039302    -2.4627586    -1.1550518
H           1.3714331    -0.7618530    -1.5066050
C           3.2770151    -3.0654843     0.3128354
H           4.3401593    -3.3211240     0.3800270
H           2.9282737    -2.8302434     1.3250586
H           2.7325790    -3.9544969    -0.0283178
H           3.3906518    -2.2043580    -1.6351312
C           5.1535945     1.6762212     0.7016110
H           5.6672658     2.5704626     1.0448111
C           4.1356494     1.1036680     1.4607221
H           3.8374120     1.5410673     2.4100241
C           3.4985471    -0.0397362     0.9875978
H           2.7025249    -0.4776334     1.5846461
C           3.8429736    -0.6469373    -0.2316376
C           4.8847026    -0.0731691    -1.0006628
C           5.4208183    -0.6144074    -2.3325069
H           6.2719296     0.0327616    -2.5811004
C           4.4243032    -0.4553956    -3.5003780
H           4.0832281     0.5825455    -3.5813781
H           3.5377417    -1.0875179    -3.3851837
H           4.9035642    -0.7294705    -4.4483435
C           5.9998999    -2.0422197    -2.2598630
H           6.7278602    -2.1261934    -1.4451945
H           6.5159173    -2.2819646    -3.1977059
H           5.2359293    -2.8088605    -2.1040260
C           5.5132813     1.0833551    -0.5053680
H           6.3152706     1.5285136    -1.0905057
30
336_C12H18_16-17-18-24 (-45,) energy =    -468.1265771
C           3.0491936    -1.8957426    -0.6173354
C           1.5314179    -1.6226002    -0.6467629
H           1.1321374    -1.4047016     0.3499839
H           0.9970044    -2.5005277    -1.0296238
H           1.2951279    -0.7707305    -1.2938570
C           3.3694020    -3.1023714     0.2861333
H           4.4365178    -3.3471797     0.2632587
H           3.0985795    -2.8967581     1.3285570
H           2.8087271    -3.9885815    -0.0355852
H           3.3235986    -2.1648988    -1.6381840
C           5.0713400     1.7508407     0.6288508
H           5.5503862     2.6771926     0.9349926
C           4.0917599     1.1580272     1.4225836
H           3.7887030     1.6107228     2.3631292
C           3.4957666    -0.0230444     0.9917356
H           2.7226392    -0.4712743     1.6104664
C           3.8472145    -0.6527716    -0.2146136
C           4.8655064    -0.0710158    -1.0078814
C           5.4741994    -0.6535534    -2.2932220
H           6.4221536    -0.1179660    -2.4271785
C           4.6093289    -0.3235134    -3.5304496
H           4.4298474     0.7541885    -3.6093522
H           3.6330094    -0.8199335    -3.4811175
H           5.1060780    -0.6550912    -4.4507694
C           5.8389976    -2.1516039    -2.2734511
H           6.3615905    -2.4243393    -1.3497583
H           6.5115406    -2.3696211    -3.1120236
H           4.9743323    -2.8105604    -2.3799258
C           5.4487979     1.1276986    -0.5565254
H           6.2352631     1.5787375    -1.1583397
30
336_C12H18_16-17-18-24 (-30,) energy =    -468.1237517
C           2.6402508    -0.7404410    -0.9799009
C           1.9311879     0.6296695    -1.0058812
H           1.5015447     0.8894878    -0.0319813
H           1.1117522     0.6183639    -1.7349170
H           2.6259674     1.4288885    -1.2867021
C           1.6517770    -1.8603553    -0.6013933
H           2.1309895    -2.8449109    -0.6349381
H           1.2587801    -1.7188213     0.4123861
H           0.7984099    -1.8731875    -1.2903220
H           2.9695343    -0.9267963    -2.0006182
C           6.0009935    -0.4562209     1.7710083
H           6.8345145    -0.3560250     2.4613198
C           4.6929329    -0.2176379     2.1903767
H           4.4820088     0.0732601     3.2161552
C           3.6565464    -0.3524539     1.2743736
H           2.6401750    -0.1533727     1.6042726
C           3.8683092    -0.7258026    -0.0661504
C           5.1907527    -0.9994999    -0.4877437
C           5.6691835    -1.5187115    -1.8573218
H           6.5520055    -2.1282620    -1.6266770
C           6.1566035    -0.3451667    -2.7365108
H           6.9134061     0.2545440    -2.2197427
H           5.3230132     0.3201731    -2.9930985
H           6.5932621    -0.7138661    -3.6731003
C           4.7390129    -2.4285703    -2.6838283
H           4.1887896    -3.1389256    -2.0576859
H           5.3469403    -3.0107466    -3.3869165
H           4.0172672    -1.8691546    -3.2856975
C           6.2255326    -0.8504776     0.4576328
H           7.2448588    -1.0675597     0.1433895
30
336_C12H18_16-17-18-24 (-15,) energy =    -468.1212978
C           2.5705908    -0.8054854    -0.9402390
C           1.8199689     0.5416454    -0.9858780
H           1.4204804     0.8263975    -0.0061911
H           0.9735401     0.4796532    -1.6807479
H           2.4789645     1.3491707    -1.3236203
C           1.6339039    -1.9414918    -0.4843667
H           2.1442343    -2.9110408    -0.5056557
H           1.2766640    -1.7797544     0.5394911
H           0.7551802    -2.0044677    -1.1378156
H           2.8608735    -1.0198566    -1.9652700
C           5.9947756    -0.3811779     1.7169752
H           6.8398247    -0.2579153     2.3893019
C           4.6922234    -0.1393187     2.1530123
H           4.4957536     0.1807887     3.1729339
C           3.6433720    -0.3147674     1.2606439
H           2.6311406    -0.1205531     1.6051892
C           3.8313821    -0.7272570    -0.0739196
C           5.1496269    -0.9885406    -0.5162563
C           5.6409117    -1.5535608    -1.8678888
H           6.3758771    -2.3217118    -1.5921850
C           6.4054513    -0.4583414    -2.6488805
H           7.2060063    -0.0118727    -2.0509036
H           5.7231801     0.3481494    -2.9443557
H           6.8528562    -0.8726503    -3.5608099
C           4.6596391    -2.2385192    -2.8343626
H           3.9874801    -2.9407056    -2.3304665
H           5.2390123    -2.8103081    -3.5695257
H           4.0565554    -1.5218156    -3.4005473
C           6.1977758    -0.8074153     0.4117510
H           7.2133297    -1.0287381     0.0891826
30
336_C12H18_16-17-18-24 (0,) energy =    -468.1186194
C           2.5289151    -0.8339854    -0.9101793
C           1.7076490     0.4718953    -0.9331296
H           1.3034284     0.7288951     0.0521184
H           0.8575152     0.3692262    -1.6185465
H           2.3181355     1.3158474    -1.2729635
C           1.6644172    -2.0195789    -0.4374625
H           2.2225159    -2.9617715    -0.4828460
H           1.3319264    -1.8837587     0.5984706
H           0.7703919    -2.1223760    -1.0647206
H           2.8017212    -1.0272831    -1.9429152
C           5.9728823    -0.2990189     1.7019003
H           6.8205713    -0.1606311     2.3679644
C           4.6714598    -0.0556141     2.1388490
H           4.4765226     0.2845776     3.1525348
C           3.6217122    -0.2620880     1.2552786
H           2.6090000    -0.0754235     1.6017148
C           3.8055068    -0.7024624    -0.0715698
C           5.1257516    -0.9479555    -0.5227646
C           5.6196545    -1.5776925    -1.8496948
H           6.1882015    -2.4674767    -1.5446274
C           6.6112889    -0.6181508    -2.5553829
H           7.4344975    -0.3050869    -1.9078640
H           6.0899014     0.2879641    -2.8874068
H           7.0457262    -1.0992714    -3.4399558
C           4.6222320    -2.0480255    -2.9208131
H           3.8664803    -2.7376030    -2.5322443
H           5.1797507    -2.5852837    -3.6976431
H           4.1171250    -1.2113261    -3.4146106
C           6.1732308    -0.7468859     0.4039329
H           7.1891867    -0.9769284     0.0930170
30
336_C12H18_16-17-18-24 (15,) energy =    -468.1156294
C           2.5098829    -0.7581284    -0.9125482
C           1.4992977     0.3974567    -0.7628893
H           1.0255725     0.4228245     0.2246245
H           0.6952520     0.2788933    -1.4989227
H           1.9748740     1.3694146    -0.9337972
C           1.8413877    -2.1023565    -0.5589496
H           2.5165175    -2.9475813    -0.7340256
H           1.5544159    -2.1256545     0.4993161
H           0.9356500    -2.2593338    -1.1579483
H           2.7627705    -0.7806049    -1.9686312
C           5.9828814    -0.1469453     1.6437167
H           6.8387157    -0.0070454     2.2990331
C           4.6973565     0.1800870     2.0644721
H           4.5179511     0.5901689     3.0549202
C           3.6380084    -0.0369352     1.1934820
H           2.6368058     0.2099361     1.5316569
C           3.7986425    -0.5639464    -0.1028066
C           5.1107741    -0.8837094    -0.5470928
C           5.5519312    -1.6156137    -1.8459720
H           5.8497349    -2.6255521    -1.5264343
C           6.8029633    -0.9420770    -2.4687973
H           7.6583977    -0.8835587    -1.7929773
H           6.5640872     0.0790897    -2.7898289
H           7.1278310    -1.5037994    -3.3520253
C           4.5605179    -1.7966353    -3.0103834
H           3.6817373    -2.3896720    -2.7463503
H           5.0716782    -2.3322469    -3.8189203
H           4.2303744    -0.8358798    -3.4208477
C           6.1627305    -0.6749255     0.3714404
H           7.1699537    -0.9600715     0.0880902
30
336_C12H18_16-17-18-24 (30,) energy =    -468.1164649
C           2.5007260    -1.2114289    -0.8359365
C           1.6623185    -0.0336951    -1.3670007
H           1.3621692     0.6318279    -0.5488284
H           0.7480110    -0.3946247    -1.8538952
H           2.2208281     0.5660551    -2.0925227
C           1.6525679    -2.0973765     0.1025833
H           2.2432050    -2.9291660     0.5014047
H           1.2486597    -1.5366803     0.9524506
H           0.8012905    -2.5163577    -0.4478326
H           2.7581264    -1.8558461    -1.6768857
C           6.0151559    -0.2047340     1.4950009
H           6.8842254    -0.0199033     2.1211763
C           4.7383521     0.1358723     1.9279683
H           4.5796339     0.6007936     2.8974757
C           3.6581212    -0.1553199     1.1027175
H           2.6565664     0.0723015     1.4577150
C           3.8011959    -0.7553324    -0.1596103
C           5.1094503    -1.0336898    -0.6452225
C           5.4703546    -1.4419718    -2.0985633
H           5.3788594    -2.5406618    -2.1571293
C           6.9288129    -1.1234232    -2.4839938
H           7.6576966    -1.6837951    -1.8916393
H           7.1493864    -0.0548745    -2.3753819
H           7.0944165    -1.3967497    -3.5315071
C           4.5476853    -0.8905078    -3.2096041
H           3.5425698    -1.3062768    -3.2049094
H           4.9838236    -1.1269674    -4.1867907
H           4.4625936     0.2015380    -3.1461549
C           6.1811592    -0.7574702     0.2278574
H           7.1942884    -0.9638341    -0.0932866
30
336_C12H18_16-17-18-24 (45,) energy =    -468.1227638
C           2.5169867    -1.2301641    -0.8597496
C           1.5605218    -0.0954960    -1.2731497
H           1.2058713     0.4607176    -0.3975816
H           0.6797967    -0.4988039    -1.7874457
H           2.0478865     0.6220342    -1.9418727
C           1.7862511    -2.2553519     0.0338385
H           2.4522598    -3.0783783     0.3149573
H           1.4126267    -1.7991362     0.9572061
H           0.9261229    -2.6788116    -0.4993065
H           2.8025180    -1.7772796    -1.7612810
C           5.9979450    -0.0452892     1.4399089
H           6.8637499     0.1961842     2.0511834
C           4.7116739     0.2459914     1.8815949
H           4.5463626     0.7222309     2.8445161
C           3.6312511    -0.1019661     1.0759294
H           2.6250676     0.0933038     1.4383273
C           3.7896876    -0.7145671    -0.1762551
C           5.1024080    -0.9731003    -0.6552106
C           5.4142203    -1.4094398    -2.1018217
H           5.0560623    -2.4488429    -2.2043254
C           6.9085206    -1.4488018    -2.4543877
H           7.4723493    -2.1238105    -1.8022813
H           7.3662986    -0.4540392    -2.3958795
H           7.0299383    -1.8090274    -3.4817689
C           4.6592044    -0.6013911    -3.1808138
H           3.5766390    -0.6320952    -3.0800602
H           4.9103794    -0.9929443    -4.1737794
H           4.9640907     0.4529315    -3.1553316
C           6.1758091    -0.6270185     0.1858603
H           7.1915847    -0.8011589    -0.1485374
30
336_C12H18_16-17-18-24 (60,) energy =    -468.1282394
C           2.5164128    -1.2405224    -0.8726476
C           1.5052459    -0.1264716    -1.2057502
H           1.1174404     0.3465883    -0.2961965
H           0.6493751    -0.5350100    -1.7564487
H           1.9598455     0.6608420    -1.8171152
C           1.8438690    -2.3576833    -0.0476799
H           2.5473220    -3.1706229     0.1632728
H           1.4722948    -1.9823822     0.9125753
H           0.9906290    -2.7775368    -0.5944832
H           2.8191881    -1.6992498    -1.8173683
C           5.9575660     0.1194239     1.4022855
H           6.8151438     0.4290775     1.9940810
C           4.6629293     0.3143883     1.8737078
H           4.4866309     0.7793154     2.8402444
C           3.5889520    -0.1065925     1.0932406
H           2.5801249     0.0275258     1.4758501
C           3.7642156    -0.7075053    -0.1618478
C           5.0823660    -0.8917786    -0.6537452
C           5.3633292    -1.3990566    -2.0759119
H           4.8446323    -2.3650389    -2.1826619
C           6.8417251    -1.6793431    -2.3805780
H           7.2857039    -2.3705072    -1.6559808
H           7.4395978    -0.7601804    -2.3863434
H           6.9321960    -2.1328782    -3.3738281
C           4.7761151    -0.4650568    -3.1571861
H           3.7065846    -0.2888711    -3.0343924
H           4.9352472    -0.8935069    -4.1542386
H           5.2758971     0.5114439    -3.1294213
C           6.1512176    -0.4670930     0.1524084
H           7.1681820    -0.5897603    -0.2032891
30
336_C12H18_16-17-18-24 (75,) energy =    -468.1308510
C           2.5752731    -1.2555796    -0.8074764
C           1.5241489    -0.1593767    -1.0704332
H           1.1279330     0.2537307    -0.1357932
H           0.6780814    -0.5675639    -1.6363496
H           1.9494289     0.6712847    -1.6446859
C           1.9553821    -2.4378579    -0.0356089
H           2.6862209    -3.2406285     0.1125711
H           1.5991469    -2.1272747     0.9534514
H           1.1002013    -2.8515387    -0.5839685
H           2.8770342    -1.6416836    -1.7847227
C           5.9910068     0.2902628     1.3926997
H           6.8413434     0.6718257     1.9520478
C           4.7014522     0.3869265     1.9089794
H           4.5250368     0.8442293     2.8791369
C           3.6341477    -0.1140770     1.1677099
H           2.6306900    -0.0420286     1.5800442
C           3.8121204    -0.7099556    -0.0898806
C           5.1246373    -0.8143702    -0.6138779
C           5.3953888    -1.4035160    -2.0021419
H           4.7555305    -2.2888280    -2.1166131
C           6.8366490    -1.8923724    -2.2171199
H           7.1567775    -2.5741459    -1.4216206
H           7.5514185    -1.0622811    -2.2612419
H           6.9067089    -2.4282290    -3.1704819
C           5.0047807    -0.4071187    -3.1149271
H           3.9603052    -0.0907616    -3.0364687
H           5.1505087    -0.8549983    -4.1056490
H           5.6277565     0.4936367    -3.0560601
C           6.1877479    -0.3034275     0.1472102
H           7.1994895    -0.3711085    -0.2389753
30
336_C12H18_16-17-18-24 (90,) energy =    -468.1311665
C           2.5207735    -1.1506071    -0.8554408
C           1.2817878    -0.2412049    -0.7635282
H           0.8736729    -0.1975455     0.2525689
H           0.4869811    -0.6261514    -1.4130676
H           1.5123259     0.7826599    -1.0776300
C           2.1910515    -2.5683299    -0.3441226
H           3.0399487    -3.2490015    -0.4735863
H           1.9455950    -2.5460572     0.7244306
H           1.3315464    -2.9886202    -0.8808594
H           2.7559899    -1.2333206    -1.9215993
C           5.9475205     0.4574072     1.2893746
H           6.8027606     0.8609498     1.8253299
C           4.6627348     0.5729444     1.8137290
H           4.4962484     1.0656453     2.7682181
C           3.5847851     0.0532891     1.0999236
H           2.5870291     0.1529047     1.5173765
C           3.7497400    -0.5876545    -0.1370846
C           5.0595307    -0.7274318    -0.6585621
C           5.3307244    -1.4070223    -2.0032997
H           4.5289574    -2.1307831    -2.1861218
C           6.6429869    -2.2107496    -2.0398769
H           6.7081430    -2.9110498    -1.1999935
H           7.5269220    -1.5636715    -2.0087292
H           6.7004194    -2.7880706    -2.9699686
C           5.2969162    -0.3780033    -3.1525497
H           4.3420186     0.1582476    -3.1848552
H           5.4458781    -0.8684754    -4.1224596
H           6.0902820     0.3681610    -3.0244295
C           6.1315515    -0.1878185     0.0680536
H           7.1391929    -0.2763055    -0.3270325
30
336_C12H18_16-17-18-24 (105,) energy =    -468.1311630
C           2.4848004    -1.1307718    -0.8362798
C           1.1881817    -0.3417983    -0.5825548
H           0.8434703    -0.4325493     0.4538659
H           0.3867603    -0.7294566    -1.2220222
H           1.3150376     0.7234114    -0.8045358
C           2.2965776    -2.6102735    -0.4405415
H           3.1814562    -3.2091248    -0.6824818
H           2.1226098    -2.6993468     0.6385406
H           1.4358100    -3.0485900    -0.9605204
H           2.6504823    -1.0966837    -1.9193080
C           5.9370220     0.5722749     1.1987771
H           6.7981046     1.0015533     1.7044688
C           4.6655130     0.6626692     1.7602919
H           4.5160822     1.1613127     2.7145170
C           3.5782874     0.1139111     1.0837168
H           2.5918973     0.2004155     1.5288750
C           3.7192714    -0.5369391    -0.1520104
C           5.0159701    -0.6509060    -0.7101309
C           5.2896448    -1.3422516    -2.0478143
H           4.3936914    -1.8950600    -2.3443336
C           6.4236821    -2.3817723    -1.9590973
H           6.2220406    -3.1240406    -1.1788183
H           7.3909937    -1.9180537    -1.7357167
H           6.5277159    -2.9106515    -2.9140241
C           5.5735391    -0.3094705    -3.1570406
H           4.7401425     0.3932902    -3.2684672
H           5.7326322    -0.8067349    -4.1217459
H           6.4716225     0.2764930    -2.9280767
C           6.0969146    -0.0784470    -0.0220013
H           7.0925470    -0.1440994    -0.4530687
30
336_C12H18_16-17-18-24 (120,) energy =    -468.1311504
C           2.4914688    -1.5744124    -0.7713124
C           1.6342181    -0.5391028    -1.5292769
H           1.2498104     0.2200764    -0.8375491
H           0.7767470    -1.0212128    -2.0148366
H           2.2136612    -0.0202097    -2.3004672
C           1.6188958    -2.3606584     0.2225501