30
336_C12H18_1-0-16-17 (-165,) energy =    -468.1304102
C           2.4141592    -1.0919880    -0.9729804
C           1.0675106    -0.5673170    -0.4479473
H           0.8797514    -0.8865304     0.5835584
H           0.2520812    -0.9646522    -1.0627320
H           1.0114467     0.5264835    -0.4813231
C           2.4259475    -2.6322322    -0.8421753
H           3.3360255    -3.0802569    -1.2512535
H           2.3621910    -2.9210510     0.2137468
H           1.5678332    -3.0716800    -1.3655165
H           2.4563335    -0.8430425    -2.0417194
C           5.8809061     0.5452417     1.0999603
H           6.7495115     0.9353582     1.6241358
C           4.6065813     0.6680521     1.6467352
H           4.4602363     1.1563709     2.6067834
C           3.5105042     0.1576682     0.9529912
H           2.5265031     0.2617062     1.3973822
C           3.6426898    -0.4790842    -0.2909605
C           4.9411888    -0.6024743    -0.8463549
C           5.2118102    -1.2258042    -2.2179027
H           4.2713495    -1.6101203    -2.6213875
C           6.1829574    -2.4196497    -2.1356336
H           5.8162439    -3.1863471    -1.4440785
H           7.1752741    -2.1095621    -1.7885498
H           6.3075388    -2.8816471    -3.1224226
C           5.7230665    -0.1707086    -3.2199717
H           5.0140319     0.6589371    -3.3169847
H           5.8642654    -0.6171041    -4.2119296
H           6.6844097     0.2499778    -2.9032447
C           6.0317748    -0.0808858    -0.1350260
H           7.0282584    -0.1638928    -0.5619842
30
336_C12H18_1-0-16-17 (-150,) energy =    -468.1311759
C           2.4357900    -1.1484705    -0.9658174
C           1.1243449    -0.4205360    -0.6223122
H           0.8080224    -0.6017599     0.4113370
H           0.3188397    -0.7816617    -1.2720167
H           1.2153693     0.6619756    -0.7634305
C           2.2987840    -2.6584975    -0.6798884
H           3.1925852    -3.2116256    -0.9884406
H           2.1557991    -2.8339498     0.3931474
H           1.4367682    -3.0811661    -1.2107082
H           2.5722310    -1.0276161    -2.0469084
C           5.8937255     0.4938975     1.1105097
H           6.7561636     0.9063633     1.6277392
C           4.6301043     0.5308937     1.6956155
H           4.4880618     0.9708581     2.6793796
C           3.5408026     0.0043568     1.0050118
H           2.5610695     0.0488981     1.4703688
C           3.6711637    -0.5716227    -0.2686819
C           4.9597157    -0.6283259    -0.8535215
C           5.2296650    -1.2414857    -2.2293888
H           4.3159898    -1.7277086    -2.5823834
C           6.3111637    -2.3382965    -2.1790916
H           6.0517141    -3.1189220    -1.4553232
H           7.2897941    -1.9347034    -1.8956371
H           6.4221917    -2.8089237    -3.1633688
C           5.5916867    -0.1567671    -3.2636262
H           4.7957835     0.5916309    -3.3481578
H           5.7495105    -0.6009477    -4.2540831
H           6.5115481     0.3687804    -2.9813592
C           6.0431240    -0.0807325    -0.1489868
H           7.0324819    -0.1059646    -0.5989078
30
336_C12H18_1-0-16-17 (-135,) energy =    -468.1311653
C           2.4807126    -1.1886015    -0.9904327
C           1.2950064    -0.2066306    -0.9397012
H           0.8913997    -0.0967252     0.0730703
H           0.4790672    -0.5693029    -1.5760258
H           1.5864054     0.7884313    -1.2935207
C           2.0655710    -2.5762780    -0.4607465
H           2.8827881    -3.3000885    -0.5561532
H           1.7933376    -2.5230938     0.6001839
H           1.2002057    -2.9632505    -1.0128460
H           2.7301641    -1.3064834    -2.0491952
C           5.9226175     0.2950121     1.2164886
H           6.7799590     0.6698337     1.7696617
C           4.6435613     0.3542052     1.7644961
H           4.4839035     0.7729591     2.7547730
C           3.5638552    -0.1273443     1.0279691
H           2.5699267    -0.0754690     1.4639966
C           3.7202595    -0.6731337    -0.2552959
C           5.0241546    -0.7578164    -0.8019481
C           5.2855715    -1.3399149    -2.1937460
H           4.5133085    -2.0904844    -2.3969800
C           6.6320589    -2.0745690    -2.3201079
H           6.7598372    -2.8189800    -1.5266602
H           7.4850606    -1.3876387    -2.2794178
H           6.6834726    -2.5928356    -3.2846304
C           5.1676845    -0.2463499    -3.2759016
H           4.1869318     0.2413289    -3.2516611
H           5.3139077    -0.6686940    -4.2777582
H           5.9263432     0.5302163    -3.1210212
C           6.0987343    -0.2579376    -0.0501826
H           7.1025223    -0.3057372    -0.4612856
30
336_C12H18_1-0-16-17 (-120,) energy =    -468.1311505
C           2.5093530    -1.2803348    -0.9551443
C           1.4548130    -0.1704783    -1.1365692
H           1.0686946     0.1829933    -0.1736128
H           0.6029855    -0.5428546    -1.7184390
H           1.8749475     0.6942213    -1.6622116
C           1.9015389    -2.5117633    -0.2551036
H           2.6353106    -3.3210037    -0.1698814
H           1.5580984    -2.2680014     0.7570032
H           1.0393917    -2.8903574    -0.8175945
H           2.7990964    -1.5979481    -1.9606566
C           5.9312191     0.2381045     1.2551040
H           6.7802779     0.6265867     1.8116006
C           4.6549266     0.2445473     1.8133897
H           4.4887869     0.6363669     2.8135553
C           3.5877528    -0.2571537     1.0733494
H           2.5940175    -0.2477851     1.5144853
C           3.7525457    -0.7715819    -0.2222565
C           5.0524609    -0.7939475    -0.7839450
C           5.3210346    -1.3282617    -2.1936726
H           4.6154707    -2.1456704    -2.3839806
C           6.7246223    -1.9302121    -2.3805648
H           6.9537026    -2.6682955    -1.6041575
H           7.5094528    -1.1652691    -2.3627703
H           6.7866235    -2.4303691    -3.3538802
C           5.0643154    -0.2366238    -3.2537062
H           4.0424284     0.1532067    -3.1943781
H           5.2201944    -0.6296643    -4.2659691
H           5.7492385     0.6073612    -3.1081783
C           6.1156771    -0.2782030    -0.0255101
H           7.1177093    -0.2837654    -0.4428676
30
336_C12H18_1-0-16-17 (-105,) energy =    -468.1311642
C           2.5196804    -1.5144071    -0.8722320
C           1.3626346    -0.5446222    -1.1860481
H           0.9754001    -0.0846211    -0.2690920
H           0.5336264    -1.0711781    -1.6747344
H           1.6909952     0.2642624    -1.8483623
C           2.0301409    -2.6963224    -0.0134592
H           2.8485293    -3.3887728     0.2127555
H           1.6021127    -2.3639618     0.9389471
H           1.2495728    -3.2530593    -0.5456067
H           2.8460133    -1.9446325    -1.8233727
C           5.7878162     0.6107293     1.0550164
H           6.6030119     1.1391034     1.5426835
C           4.6063982     0.3399019     1.7413349
H           4.4806213     0.6555074     2.7738262
C           3.5828044    -0.3441365     1.0903351
H           2.6640951    -0.5508140     1.6331934
C           3.7007303    -0.7741453    -0.2403497
C           4.8921374    -0.4775837    -0.9463922
C           5.1042784    -0.9106431    -2.3996951
H           4.1276818    -0.9107746    -2.8976439
C           5.6616198    -2.3479603    -2.4677954
H           5.0066308    -3.0603255    -1.9543498
H           6.6465155    -2.4002554    -1.9883587
H           5.7728403    -2.6762873    -3.5086061
C           5.9934330     0.0448897    -3.2147412
H           5.6487393     1.0816911    -3.1355606
H           5.9725542    -0.2406587    -4.2727941
H           7.0410384     0.0113030    -2.8943500
C           5.9165809     0.2046525    -0.2714619
H           6.8395538     0.4311292    -0.7962345
30
336_C12H18_1-0-16-17 (-90,) energy =    -468.1311673
C           2.5273830    -1.5881179    -0.8112855
C           1.5173183    -0.5820689    -1.4016252
H           1.1008513     0.0536567    -0.6110698
H           0.6855280    -1.1032011    -1.8915385
H           1.9891839     0.0760483    -2.1396464
C           1.8181990    -2.5626864     0.1459977
H           2.5281698    -3.2532195     0.6142012
H           1.2785634    -2.0411355     0.9446091
H           1.0798756    -3.1558941    -0.4059809
H           2.9048808    -2.1992067    -1.6383798
C           5.8357352     0.5255155     1.0659743
H           6.6628061     1.0517122     1.5356426
C           4.6824611     0.2284064     1.7876266
H           4.5909735     0.5210967     2.8304548
C           3.6421445    -0.4555277     1.1618360
H           2.7506317    -0.6862032     1.7373788
C           3.7153554    -0.8567144    -0.1806255
C           4.8783669    -0.5323225    -0.9216324
C           5.0506511    -0.9360826    -2.3881320
H           4.0555646    -1.0656386    -2.8262219
C           5.7838929    -2.2888841    -2.4994653
H           5.2558755    -3.0776383    -1.9519877
H           6.7946406    -2.2159125    -2.0803528
H           5.8730201    -2.6015007    -3.5472306
C           5.7547560     0.1324216    -3.2441933
H           5.2710671     1.1100194    -3.1418560
H           5.7217500    -0.1550929    -4.3015790
H           6.8107233     0.2497593    -2.9758144
C           5.9209815     0.1451533    -0.2717243
H           6.8240445     0.3856946    -0.8251730
30
336_C12H18_1-0-16-17 (-75,) energy =    -468.1308512
C           2.4906958    -1.5940702    -0.7577590
C           1.7177108    -0.5722567    -1.6191222
H           1.3256625     0.2368150    -0.9909368
H           0.8688017    -1.0517334    -2.1219369
H           2.3518802    -0.1163652    -2.3854307
C           1.5343080    -2.2765585     0.2331948
H           2.0608658    -2.9827960     0.8844292
H           1.0132401    -1.5515105     0.8693501
H           0.7664289    -2.8318607    -0.3172260
H           2.8453180    -2.3865527    -1.4303885
C           5.9088177     0.3368836     1.1320110
H           6.7578268     0.8293701     1.5990053
C           4.7575866     0.0592345     1.8643799
H           4.6899903     0.3318371     2.9144568
C           3.6852107    -0.5756038     1.2403832
H           2.7967731    -0.7850620     1.8270369
C           3.7222962    -0.9512335    -0.1116483
C           4.8921047    -0.6620912    -0.8573908
C           5.0674984    -1.0470005    -2.3282340
H           4.1344389    -1.4863492    -2.6909026
C           6.1599609    -2.1217222    -2.4997956
H           5.9349764    -3.0134125    -1.9041527
H           7.1407665    -1.7495515    -2.1818246
H           6.2423411    -2.4249020    -3.5507360
C           5.3556411     0.1768318    -3.2197987
H           4.5681493     0.9328862    -3.1256955
H           5.4173120    -0.1224638    -4.2730426
H           6.3059611     0.6548776    -2.9560127
C           5.9635271    -0.0275908    -0.2110765
H           6.8681742     0.1857203    -0.7752370
30
336_C12H18_1-0-16-17 (-60,) energy =    -468.1282394
C           2.4774806    -1.6206152    -0.7170669
C           1.8322895    -0.6520973    -1.7329361
H           1.4695184     0.2491061    -1.2227058
H           0.9726066    -1.1302177    -2.2180636
H           2.5224373    -0.3304564    -2.5141272
C           1.4171223    -2.1066171     0.2811845
H           1.8275306    -2.8274168     0.9966464
H           0.9770534    -1.2767710     0.8469003
H           0.6022316    -2.5999846    -0.2600811
H           2.7859428    -2.5111981    -1.2873911
C           5.9201337     0.2990370     1.1506309
H           6.7605126     0.8146112     1.6081878
C           4.8194716    -0.0831147     1.9114377
H           4.7820128     0.1275191     2.9771720
C           3.7506180    -0.7306466     1.2935175
H           2.8948641    -1.0001760     1.9024674
C           3.7448314    -1.0340380    -0.0778281
C           4.8768149    -0.6586180    -0.8467430
C           5.0620164    -1.0420658    -2.3181374
H           4.1667637    -1.5679389    -2.6595725
C           6.2339143    -2.0311296    -2.4894194
H           6.0907904    -2.9237412    -1.8705656
H           7.1897095    -1.5779931    -2.2028307
H           6.3164863    -2.3504237    -3.5356123
C           5.2494071     0.1863029    -3.2294792
H           4.4098990     0.8847938    -3.1421530
H           5.3298579    -0.1212881    -4.2790530
H           6.1626061     0.7368628    -2.9756752
C           5.9381096     0.0008954    -0.2097499
H           6.8101109     0.2815482    -0.7953939
30
336_C12H18_1-0-16-17 (-45,) energy =    -468.1227636
C           2.4284573    -1.6386017    -0.6917262
C           1.8937423    -0.7719224    -1.8536689
H           1.6304715     0.2317922    -1.4952490
H           0.9820580    -1.2262852    -2.2595889
H           2.5954211    -0.6526637    -2.6761323
C           1.2948583    -1.8900529     0.3134788
H           1.5763613    -2.6132283     1.0858432
H           0.9787166    -0.9645419     0.8094712
H           0.4250743    -2.2964705    -0.2140851
H           2.6567641    -2.6231668    -1.1363236
C           5.9060850     0.2255075     1.1883513
H           6.7364910     0.7509186     1.6528331
C           4.8441642    -0.2498772     1.9504173
H           4.8258962    -0.1063678     3.0277350
C           3.7801580    -0.8909591     1.3181947
H           2.9473375    -1.2106738     1.9331599
C           3.7407020    -1.1175665    -0.0697430
C           4.8513252    -0.6696243    -0.8349329
C           5.0711812    -1.0317286    -2.3091312
H           4.2301019    -1.6413198    -2.6476663
C           6.3224632    -1.9198580    -2.4795304
H           6.2583006    -2.8155387    -1.8521473
H           7.2408662    -1.3879483    -2.2076080
H           6.4210082    -2.2406610    -3.5239207
C           5.1601280     0.2070265    -3.2206024
H           4.2628942     0.8306787    -3.1458092
H           5.2833057    -0.0908844    -4.2688894
H           6.0185507     0.8338401    -2.9522856
C           5.8994061    -0.0007011    -0.1850272
H           6.7471850     0.3395403    -0.7744135
30
336_C12H18_1-0-16-17 (-30,) energy =    -468.1164647
C           2.4028752    -1.6782759    -0.6471881
C           1.9638316    -1.0453864    -1.9875444
H           1.9506260     0.0497089    -1.9213434
H           0.9430020    -1.3700125    -2.2189568
H           2.5824015    -1.3228205    -2.8381736
C           1.2255155    -1.5701391     0.3424856
H           1.3520827    -2.2030656     1.2254110
H           1.0777960    -0.5376179     0.6805874
H           0.3050982    -1.8973831    -0.1526627
H           2.5212663    -2.7562194    -0.8542186
C           5.9404473     0.1139062     1.2272357
H           6.7734802     0.6271279     1.7004784
C           4.8962292    -0.4089495     1.9821937
H           4.8935721    -0.3223807     3.0657224
C           3.8253855    -1.0197946     1.3349458
H           3.0085819    -1.3708426     1.9527956
C           3.7513512    -1.1775562    -0.0639189
C           4.8628953    -0.7106592    -0.8197029
C           5.0981634    -1.0096847    -2.3069800
H           4.3328612    -1.7102176    -2.6420730
C           6.4386551    -1.7421509    -2.5343990
H           6.5151863    -2.6321332    -1.9004777
H           7.3033200    -1.1045160    -2.3209596
H           6.5171076    -2.0609106    -3.5810211
C           5.0187364     0.2519906    -3.1866955
H           4.0466283     0.7470323    -3.0976444
H           5.1790243     0.0014604    -4.2425530
H           5.7876120     0.9783317    -2.8974276
C           5.9118299    -0.0562725    -0.1522024
H           6.7476285     0.3152109    -0.7390141
30
336_C12H18_1-0-16-17 (-15,) energy =    -468.1156288
C           2.5835292    -1.8499579    -0.4480038
C           2.2206892    -1.9350237    -1.9421744
H           1.9763425    -0.9526497    -2.3614157
H           1.3254422    -2.5593892    -2.0450911
H           2.9989862    -2.3974187    -2.5538599
C           1.2919813    -1.3693864     0.2644629
H           1.3474035    -1.4035616     1.3542645
H           1.0617076    -0.3363752    -0.0232232
H           0.4453358    -1.9975345    -0.0351508
H           2.7780290    -2.8796120    -0.1122270
C           6.0705668     0.1680851     1.2881135
H           6.9373099     0.6297874     1.7538658
C           5.0273572    -0.3406051     2.0559830
H           5.0577773    -0.2951386     3.1415577
C           3.9430201    -0.9282764     1.4167681
H           3.1662354    -1.3541225     2.0423673
C           3.8173605    -1.0241651     0.0135289
C           4.8956322    -0.5184040    -0.7628033
C           4.9925996    -0.5641233    -2.2933710
H           3.9909307    -0.6575100    -2.7028286
C           5.8055673    -1.7920846    -2.7517101
H           5.3672531    -2.7266828    -2.3839160
H           6.8331798    -1.7401252    -2.3720804
H           5.8523612    -1.8447945    -3.8466170
C           5.5678382     0.7226442    -2.9197571
H           5.0530973     1.6143241    -2.5455380
H           5.4407127     0.6891266    -4.0083457
H           6.6393595     0.8465386    -2.7280300
C           5.9887230     0.0664640    -0.0942054
H           6.8104536     0.4551337    -0.6870649
30
336_C12H18_1-0-16-17 (0,) energy =    -468.1186194
C           2.5378793    -1.8222051    -0.3930993
C           2.2845632    -2.1887563    -1.8644509
H           2.0841910    -1.3082122    -2.4837385
H           1.3894384    -2.8207442    -1.9122382
H           3.1043090    -2.7578249    -2.3137442
C           1.2969776    -1.0279433     0.0880283
H           1.3214471    -0.8073381     1.1583996
H           1.2300375    -0.0713278    -0.4444505
H           0.3787404    -1.5915590    -0.1165566
H           2.5541556    -2.7699641     0.1632449
C           6.1682014    -0.0569832     1.2892522
H           7.0693367     0.3394042     1.7498175
C           5.0945825    -0.4871396     2.0678354
H           5.1381305    -0.4421700     3.1529439
C           3.9701237    -1.0001339     1.4370537
H           3.1608019    -1.3745794     2.0587837
C           3.8346935    -1.0890833     0.0334188
C           4.9305273    -0.6539318    -0.7518623
C           4.9910363    -0.6404255    -2.2836547
H           4.0147180    -0.9024933    -2.6791794
C           5.9936350    -1.6830959    -2.8166819
H           5.7361573    -2.6926268    -2.4763724
H           7.0126960    -1.4699418    -2.4728285
H           6.0046135    -1.6855497    -3.9135766
C           5.3052349     0.7623879    -2.8437407
H           4.5916596     1.5051472    -2.4701688
H           5.2437630     0.7522971    -3.9388125
H           6.3113696     1.1035429    -2.5763953
C           6.0698134    -0.1495719    -0.0916992
H           6.9108637     0.1826858    -0.6939288
30
336_C12H18_1-0-16-17 (15,) energy =    -468.1212969
C           2.5047628    -1.8021192    -0.3841898
C           2.3513742    -2.3814822    -1.8009323
H           2.1600940    -1.6099775    -2.5533426
H           1.4821814    -3.0504329    -1.8100083
H           3.2196418    -2.9696319    -2.1155018
C           1.3175379    -0.8457747    -0.1206846
H           1.2987613    -0.4914520     0.9146468
H           1.3834562     0.0348982    -0.7713087
H           0.3631398    -1.3461237    -0.3261475
H           2.3892085    -2.6520650     0.3017572
C           6.1725937    -0.1429996     1.3077893
H           7.0820708     0.2333220     1.7688335
C           5.0981235    -0.5705199     2.0875551
H           5.1495468    -0.5391546     3.1727654
C           3.9639067    -1.0622420     1.4564338
H           3.1438180    -1.4276862     2.0715108
C           3.8264865    -1.1320330     0.0532669
C           4.9128242    -0.6825954    -0.7338520
C           4.9362755    -0.6184859    -2.2640739
H           3.9583836    -0.9032083    -2.6430428
C           5.9612919    -1.6022731    -2.8616799
H           5.7538602    -2.6319899    -2.5493065
H           6.9819532    -1.3605477    -2.5424882
H           5.9379206    -1.5674003    -3.9577414
C           5.1871293     0.8154252    -2.7752643
H           4.4510884     1.5151695    -2.3641163
H           5.1118186     0.8456223    -3.8691339
H           6.1829898     1.1832264    -2.5042543
C           6.0637664    -0.2057567    -0.0747347
H           6.9024577     0.1329378    -0.6771637
30
336_C12H18_1-0-16-17 (30,) energy =    -468.1237515
C           2.4947883    -1.7710993    -0.3529789
C           2.4482204    -2.5742778    -1.6679102
H           2.3105501    -1.9428454    -2.5502341
H           1.5901733    -3.2565810    -1.6355477
H           3.3470151    -3.1822877    -1.8158205
C           1.3783263    -0.7028890    -0.3621795
H           1.3036662    -0.1935659     0.6045208
H           1.5766755     0.0595923    -1.1255184
H           0.4048876    -1.1571508    -0.5855138
H           2.2414330    -2.4855889     0.4403683
C           6.2118174    -0.2190337     1.3224465
H           7.1370762     0.1310265     1.7726674
C           5.1479371    -0.6452669     2.1163412
H           5.2237041    -0.6356057     3.2005377
C           3.9916765    -1.1088239     1.5006639
H           3.1761558    -1.4712420     2.1239119
C           3.8289215    -1.1477980     0.1011259
C           4.8992280    -0.6852247    -0.7001152
C           4.8591775    -0.5651398    -2.2255838
H           3.8600409    -0.8283473    -2.5682426
C           5.8501587    -1.5284705    -2.9070628
H           5.6525916    -2.5691422    -2.6275837
H           6.8848526    -1.3013786    -2.6241170
H           5.7787227    -1.4494556    -3.9986979
C           5.0991623     0.8863194    -2.6907414
H           4.3893268     1.5748585    -2.2191753
H           4.9756486     0.9610062    -3.7780587
H           6.1098923     1.2340718    -2.4497328
C           6.0723459    -0.2430883    -0.0599979
H           6.9012268     0.1016873    -0.6728539
30
336_C12H18_1-0-16-17 (45,) energy =    -468.1265760
C           2.4901955    -1.7431911    -0.3221596
C           2.5582601    -2.7583558    -1.4808462
H           2.7053521    -2.2927574    -2.4580227
H           1.6129464    -3.3123836    -1.5305593
H           3.3621610    -3.4871334    -1.3280278
C           1.4582016    -0.6357725    -0.6325590
H           1.3267207     0.0316917     0.2259831
H           1.7725224    -0.0222353    -1.4850738
H           0.4821983    -1.0727681    -0.8777623
H           2.0972257    -2.2989093     0.5382031
C           6.2515987    -0.3075965     1.3483070
H           7.1937308     0.0119126     1.7861434
C           5.2067105    -0.7560588     2.1533186
H           5.3144334    -0.7942354     3.2341758
C           4.0249009    -1.1793892     1.5532863
H           3.2227486    -1.5571123     2.1842269
C           3.8242964    -1.1526825     0.1605114
C           4.8764771    -0.6648263    -0.6517022
C           4.7758780    -0.4772017    -2.1678218
H           3.7483494    -0.6799459    -2.4724406
C           5.6901881    -1.4550101    -2.9309833
H           5.4517476    -2.4962909    -2.6898038
H           6.7439862    -1.2888506    -2.6777108
H           5.5827766    -1.3222127    -4.0145124
C           5.0613270     0.9793265    -2.5877691
H           4.4100257     1.6799672    -2.0537852
H           4.8871826     1.1036124    -3.6634957
H           6.0985638     1.2700488    -2.3875766
C           6.0721610    -0.2648643    -0.0307467
H           6.8869855     0.0996386    -0.6510127
30
336_C12H18_1-0-16-17 (60,) energy =    -468.1285550
C           2.4531023    -1.6714110    -0.3219525
C           2.5141034    -2.8486494    -1.3166972
H           2.9041653    -2.5630159    -2.2974767
H           1.5076307    -3.2562946    -1.4720409
H           3.1464641    -3.6546938    -0.9280021
C           1.5308653    -0.5401789    -0.8242483
H           1.4423103     0.2516441    -0.0723249
H           1.8953401    -0.0801997    -1.7485849
H           0.5255876    -0.9308993    -1.0247500
H           1.9647967    -2.0730310     0.5753889
C           6.2788488    -0.3713179     1.3109216
H           7.2304708    -0.0628397     1.7360144
C           5.2638593    -0.8703929     2.1239957
H           5.4050393    -0.9599536     3.1979402
C           4.0615514    -1.2626092     1.5423031
H           3.2746413    -1.6605652     2.1796056
C           3.8207025    -1.1697044     0.1597920
C           4.8508451    -0.6521250    -0.6628400
C           4.7290274    -0.4625571    -2.1769030
H           3.7232800    -0.7510790    -2.4846176
C           5.7125911    -1.3666083    -2.9459755
H           5.5599334    -2.4222695    -2.6961445
H           6.7536533    -1.1175312    -2.7099377
H           5.5795930    -1.2488025    -4.0283693
C           4.9024691     1.0137933    -2.5862192
H           4.1807588     1.6552764    -2.0684901
H           4.7506335     1.1312396    -3.6661041
H           5.9059408     1.3862312    -2.3512381
C           6.0603365    -0.2685246    -0.0597682
H           6.8563836     0.1257111    -0.6864697
30
336_C12H18_1-0-16-17 (75,) energy =    -468.1282056
C           2.4348771    -1.5937333    -0.3240650
C           2.4195753    -2.9054152    -1.1364574
H           2.9267976    -2.8056737    -2.1026758
H           1.3875453    -3.2194057    -1.3358957
H           2.9179115    -3.7078903    -0.5820379
C           1.6215224    -0.4671453    -0.9910487
H           1.6365612     0.4384279    -0.3744967
H           1.9838842    -0.1987770    -1.9872084
H           0.5764746    -0.7820705    -1.0999922
H           1.8871026    -1.8246109     0.5996617
C           6.3094077    -0.4491194     1.3082274
H           7.2625328    -0.1513438     1.7375752
C           5.3116062    -1.0047135     2.1060192
H           5.4690977    -1.1503347     3.1715233
C           4.0987384    -1.3620637     1.5236303
H           3.3161009    -1.7805982     2.1530373
C           3.8392172    -1.1978290     0.1514543
C           4.8616347    -0.6491128    -0.6599321
C           4.7426952    -0.4619138    -2.1742248
H           3.7853866    -0.8716623    -2.4999211
C           5.8297944    -1.2456233    -2.9368925
H           5.8032582    -2.3104426    -2.6803097
H           6.8355844    -0.8742782    -2.7104313
H           5.6789877    -1.1513124    -4.0191737
C           4.7601668     1.0278456    -2.5690777
H           3.9552328     1.5805801    -2.0725811
H           4.6357360     1.1426563    -3.6528267
H           5.7084311     1.5024103    -2.2908929
C           6.0743399    -0.2818314    -0.0534169
H           6.8609871     0.1457234    -0.6700858
30
336_C12H18_1-0-16-17 (90,) energy =    -468.1257071
C           2.4106218    -1.5327653    -0.3278379
C           2.2956962    -2.9594026    -0.9043219
H           2.8378353    -3.0575981    -1.8533344
H           1.2464206    -3.2192416    -1.0914407
H           2.7116797    -3.6945067    -0.2074590
C           1.6750787    -0.4868816    -1.1861393
H           1.8401460     0.5258277    -0.8027013
H           1.9615563    -0.5005267    -2.2410885
H           0.5973506    -0.6861096    -1.1471651
H           1.8423599    -1.5592705     0.6121426
C           6.3294199    -0.5383185     1.3022105
H           7.2854795    -0.2639409     1.7405221
C           5.3365719    -1.1392458     2.0738653
H           5.5015830    -1.3446725     3.1283162
C           4.1162784    -1.4515550     1.4833384
H           3.3321713    -1.8901429     2.0975784
C           3.8448590    -1.2101363     0.1237508
C           4.8683096    -0.6332742    -0.6650477
C           4.7587618    -0.4141482    -2.1758768
H           3.8361413    -0.8826422    -2.5223523
C           5.9003044    -1.1100579    -2.9450172
H           5.9510524    -2.1763624    -2.6988243
H           6.8778884    -0.6692096    -2.7203387
H           5.7390545    -1.0166686    -4.0258275
C           4.6912978     1.0820650    -2.5384166
H           3.8438704     1.5748951    -2.0505939
H           4.5859225     1.2154171    -3.6220925
H           5.6035065     1.6038784    -2.2253188
C           6.0852731    -0.2988706    -0.0461575
H           6.8696455     0.1563144    -0.6453656
30
336_C12H18_1-0-16-17 (105,) energy =    -468.1228279
C           2.2642181    -0.7908087    -0.7980408
C           1.6973399    -1.8666769     0.1523990
H           2.3092428    -2.7772168     0.1248591
H           0.6750215    -2.1402049    -0.1365356
H           1.6765884    -1.5122551     1.1879966
C           2.1110278    -1.2190585    -2.2686718
H           2.6500618    -0.5534712    -2.9507196
H           2.4411225    -2.2456414    -2.4557641
H           1.0486504    -1.1790367    -2.5376929
H           1.5969248     0.0760651    -0.6940497
C           5.8637051     1.0841051     0.8061373
H           6.7352389     1.5959209     1.2059320
C           4.5897187     1.3403484     1.3121576
H           4.4438926     2.0572155     2.1159898
C           3.4996364     0.6829578     0.7562086
H           2.5040576     0.9128573     1.1315950
C           3.6184861    -0.2577538    -0.2872412
C           4.9155640    -0.5365475    -0.7771658
C           5.2403586    -1.5935895    -1.8355644
H           4.3246170    -2.1255664    -2.0868191
C           6.2168651    -2.6598276    -1.2967892
H           5.8319000    -3.1208650    -0.3805237
H           7.2021766    -2.2383275    -1.0685653
H           6.3619216    -3.4516044    -2.0419020
C           5.7806850    -0.9639479    -3.1340398
H           5.0698289    -0.2449930    -3.5560445
H           5.9725662    -1.7363430    -3.8887447
H           6.7224148    -0.4311279    -2.9564871
C           6.0061404     0.1579749    -0.2195265
H           7.0028639    -0.0452605    -0.6024939
30
336_C12H18_1-0-16-17 (120,) energy =    -468.1201788
C           2.2697020    -0.7908483    -0.8315605
C           1.5294416    -1.6406427     0.2257132
H           2.0397225    -2.5997686     0.3806951
H           0.5053423    -1.8550374    -0.1031063
H           1.4748778    -1.1361180     1.1943686
C           2.1466185    -1.4570346    -2.2104710
H           2.6956557    -0.9174449    -2.9883484