26
426_C12H12N2_1-0-21-20 (-165,) energy =    -574.0011143
C           2.5528432    -1.4115014    -0.3162034
C           1.2685405    -1.1600523     0.2534138
N           0.9461353     0.0907467     0.7947056
C          -0.4289797     0.4294930     1.1242268
H          -1.1330860     0.2801103     0.2897110
H          -0.4608628     1.4805674     1.4233014
H          -0.7773515    -0.1675259     1.9738719
H           1.4365724     0.8513400     0.3420130
C           0.3063620    -2.1873905     0.2394596
H          -0.6704989    -2.0105385     0.6744347
C           0.5746610    -3.4244196    -0.3381454
H          -0.1929500    -4.1942032    -0.3272724
C           1.8090681    -3.6630471    -0.9401630
H           2.0252289    -4.6199869    -1.4060540
C           2.7742718    -2.6626832    -0.9172383
H           3.7504867    -2.8329456    -1.3559074
C           6.0360155     1.0415588    -0.1168970
H           6.9554841     1.6188540    -0.1215035
C           5.8407567    -0.0003437    -1.0257687
H           6.6186935    -0.2544279    -1.7454323
N           4.7376057    -0.7437490    -1.0807004
C           3.7212729    -0.4860609    -0.2262987
C           3.8557357     0.5186734     0.7542112
H           3.0856046     0.6626652     1.5015519
C           5.0185427     1.2852541     0.8008518
H           5.1276229     2.0559741     1.5598429
26
426_C12H12N2_1-0-21-20 (-150,) energy =    -574.0028729
C           2.5771592    -1.4654086    -0.2443089
C           1.2767534    -1.1741031     0.2603505
N           0.9731274     0.0854458     0.7847766
C          -0.4034845     0.4880902     1.0175003
H          -1.0511709     0.3753200     0.1329344
H          -0.4081433     1.5382221     1.3214354
H          -0.8416836    -0.0946304     1.8352186
H           1.5459192     0.8255422     0.4004064
C           0.2940881    -2.1807939     0.2146187
H          -0.7004971    -1.9764828     0.5945428
C           0.5696592    -3.4350413    -0.3230354
H          -0.2129592    -4.1895463    -0.3374887
C           1.8288716    -3.7142831    -0.8523764
H           2.0476944    -4.6862168    -1.2845663
C           2.8095752    -2.7281588    -0.8097095
H           3.7984137    -2.9190985    -1.2124302
C           5.9723323     1.0956179    -0.1455748
H           6.8651970     1.7124711    -0.1799640
C           5.7125771     0.1599491    -1.1484479
H           6.4108086     0.0342491    -1.9754739
N           4.6343639    -0.6246262    -1.1766979
C           3.7259738    -0.5184267    -0.1825716
C           3.9236680     0.3786664     0.8859760
H           3.2164092     0.4106693     1.7070729
C           5.0548217     1.1915070     0.8981763
H           5.2204028     1.8812869     1.7219728
26
426_C12H12N2_1-0-21-20 (-135,) energy =    -574.0027492
C           2.5823376    -1.5169578    -0.1789661
C           1.2708501    -1.1801629     0.2578709
N           0.9902454     0.0922576     0.7571761
C          -0.3770959     0.5542978     0.9152181
H          -0.9821431     0.4581594    -0.0010119
H          -0.3542080     1.6073148     1.2080451
H          -0.8824268    -0.0000117     1.7142606
H           1.6264798     0.8057348     0.4270997
C           0.2665345    -2.1637988     0.1886823
H          -0.7396584    -1.9273568     0.5164784
C           0.5397177    -3.4372222    -0.3051586
H          -0.2589793    -4.1740491    -0.3400592
C           1.8155123    -3.7608077    -0.7652607
H           2.0297635    -4.7479014    -1.1639399
C           2.8151401    -2.7928985    -0.7068247
H           3.8137400    -3.0127696    -1.0713410
C           5.8921863     1.1447872    -0.1783201
H           6.7564058     1.7991951    -0.2410473
C           5.5491699     0.3167173    -1.2481077
H           6.1490643     0.3177567    -2.1575981
N           4.4974590    -0.5069652    -1.2489828
C           3.7195269    -0.5550374    -0.1476981
C           3.9978097     0.2359222     0.9829842
H           3.3681669     0.1580889     1.8632386
C           5.0946988     1.0939866     0.9637619
H           5.3274183     1.7048755     1.8323413
26
426_C12H12N2_1-0-21-20 (-120,) energy =    -574.0012188
C           2.5929244    -1.5518842    -0.1376988
C           1.2747356    -1.1789079     0.2381413
N           1.0126582     0.1115612     0.6964002
C          -0.3445564     0.6143275     0.8007057
H          -0.9208527     0.5208903    -0.1343052
H          -0.3023097     1.6707695     1.0786954
H          -0.8927179     0.0868260     1.5898502
H           1.6848681     0.7988548     0.3834609
C           0.2564148    -2.1472681     0.1653747
H          -0.7577481    -1.8849788     0.4462018
C           0.5290018    -3.4413691    -0.2740611
H          -0.2797220    -4.1668530    -0.3155711
C           1.8154400    -3.8014234    -0.6721719
H           2.0273225    -4.8049627    -1.0287843
C           2.8284289    -2.8452840    -0.6123609
H           3.8351001    -3.0944857    -0.9357919
C           5.8310791     1.1927925    -0.1848813
H           6.6692258     1.8792568    -0.2596763
C           5.3770255     0.5022174    -1.3089921
H           5.8602661     0.6481304    -2.2743609
N           4.3482934    -0.3528512    -1.2977543
C           3.7224184    -0.5760548    -0.1254306
C           4.1079969     0.0782466     1.0579953
H           3.5760586    -0.1259712     1.9818971
C           5.1757688     0.9719037     1.0259953
H           5.4947542     1.4805476     1.9321804
26
426_C12H12N2_1-0-21-20 (-105,) energy =    -573.9995604
C           2.5923450    -1.5611899    -0.1318988
C           1.2695952    -1.1710174     0.2006272
N           1.0120645     0.1411813     0.5926066
C          -0.3423006     0.6566455     0.6592094
H          -0.9102114     0.5214725    -0.2759178
H          -0.2965954     1.7250315     0.8862525
H          -0.9013552     0.1707363     1.4673954
H           1.6926032     0.8074141     0.2536625
C           0.2512547    -2.1406874     0.1580192
H          -0.7684233    -1.8664934     0.4062288
C           0.5341988    -3.4554256    -0.2093151
H          -0.2735836    -4.1828253    -0.2316631
C           1.8288857    -3.8353680    -0.5576032
H           2.0474663    -4.8565645    -0.8551476
C           2.8432252    -2.8770569    -0.5233731
H           3.8581286    -3.1480592    -0.8024028
C           5.7875211     1.2356447    -0.1549003
H           6.6080477     1.9439807    -0.2221053
C           5.1839117     0.7389532    -1.3102826
H           5.5293397     1.0610454    -2.2918827
N           4.1684397    -0.1337938    -1.3086459
C           3.7134509    -0.5693161    -0.1182922
C           4.2504348    -0.1140463     1.0970255
H           3.8434043    -0.4822210     2.0336525
C           5.3029866     0.7980970     1.0773484
H           5.7391401     1.1568378     2.0060949
26
426_C12H12N2_1-0-21-20 (-90,) energy =    -573.9994733
C           2.5733226    -1.5318162    -0.1487042
C           1.2455080    -1.1339896     0.1499171
N           0.9840953     0.2032121     0.4437284
C          -0.3753954     0.7070230     0.4943003
H          -0.9530045     0.5115758    -0.4243669
H          -0.3398478     1.7872216     0.6590081
H          -0.9182936     0.2620738     1.3361089
H           1.6414271     0.8404456     0.0132034
C           0.2364050    -2.1130906     0.1656548
H          -0.7874679    -1.8320679     0.3876578
C           0.5359981    -3.4477176    -0.1070158
H          -0.2646914    -4.1830133    -0.0880199
C           1.8380764    -3.8385091    -0.4114240
H           2.0701723    -4.8763778    -0.6309173
C           2.8460140    -2.8713014    -0.4253214
H           3.8698237    -3.1566955    -0.6543017
C           5.7824037     1.2487216    -0.1114780
H           6.6015863     1.9598326    -0.1637569
C           4.9929942     0.9965824    -1.2330991
H           5.1893217     1.5130094    -2.1718597
N           3.9708942     0.1306603    -1.2484507
C           3.6906300    -0.5340915    -0.1112393
C           4.4234366    -0.3357077     1.0690200
H           4.1557846    -0.8879153     1.9643772
C           5.4850002     0.5660884     1.0676039
H           6.0696380     0.7314620     1.9689066
26
426_C12H12N2_1-0-21-20 (-75,) energy =    -574.0017354
C           2.5615808    -1.5046089    -0.1394344
C           1.2219419    -1.1098661     0.1169147
N           0.9392229     0.2380609     0.3191949
C          -0.4283969     0.7208598     0.3339900
H          -1.0024737     0.4474218    -0.5669388
H          -0.4110410     1.8108589     0.4161663
H          -0.9645763     0.3314728     1.2072938
H           1.5875617     0.8492632    -0.1617141
C           0.2277260    -2.1024246     0.1743307
H          -0.8027978    -1.8240182     0.3666902
C           0.5503696    -3.4463210    -0.0149212
H          -0.2401938    -4.1912510     0.0327239
C           1.8632932    -3.8356601    -0.2711472
H           2.1144545    -4.8809691    -0.4242151
C           2.8588115    -2.8566452    -0.3159602
H           3.8926224    -3.1416546    -0.4963160
C           5.7815274     1.2588145    -0.0666475
H           6.5984141     1.9729195    -0.1108969
C           4.8140934     1.2283186    -1.0707339
H           4.8678443     1.9220755    -1.9087267
N           3.7871835     0.3693829    -1.0910948
C           3.6713481    -0.5056240    -0.0721058
C           4.5928035    -0.5402221     0.9856041
H           4.4594424    -1.2578302     1.7888182
C           5.6615592     0.3531420     0.9866314
H           6.3874285     0.3424358     1.7956493
26
426_C12H12N2_1-0-21-20 (-60,) energy =    -574.0052133
C           2.1895569    -1.0218804    -0.6235459
C           1.3073130    -1.3696018     0.4387753
N           1.5298146    -0.8539037     1.7079254
C           0.5424853    -0.9900466     2.7601119
H          -0.4527581    -0.6038407     2.4832514
H           0.8937803    -0.4413976     3.6380411
H           0.4273617    -2.0410947     3.0506121
H           2.0066418     0.0401771     1.6851098
C           0.2407403    -2.2457771     0.1647651
H          -0.4435844    -2.5242825     0.9587574
C           0.0467725    -2.7602668    -1.1162541
H          -0.7906582    -3.4302507    -1.2953190
C           0.9030109    -2.4155299    -2.1605376
H           0.7475088    -2.8073689    -3.1611978
C           1.9747432    -1.5620458    -1.8948319
H           2.6613095    -1.2922997    -2.6938428
C           5.6567624     1.3505138    -0.0294669
H           6.5064201     2.0093371     0.1219002
C           4.3731987     1.7548023     0.3359118
H           4.2101695     2.7361386     0.7793028
N           3.2794604     1.0032472     0.1665225
C           3.4232111    -0.2278564    -0.3682692
C           4.6815848    -0.7209897    -0.7508436
H           4.7623869    -1.7212243    -1.1637797
C           5.8085012     0.0786540    -0.5806199
H           6.7903241    -0.2873523    -0.8696956
26
426_C12H12N2_1-0-21-20 (-45,) energy =    -574.0081814
C           2.2216167    -1.0646370    -0.5914080
C           1.2921814    -1.3522832     0.4551505
N           1.4631824    -0.7970624     1.7081952
C           0.4565639    -0.9067033     2.7421587
H          -0.5304292    -0.5210642     2.4365105
H           0.7927226    -0.3384660     3.6135163
H           0.3274612    -1.9497962     3.0562286
H           1.9937813     0.0672548     1.6881774
C           0.2227830    -2.2282614     0.1776209
H          -0.4910975    -2.4627571     0.9595281
C           0.0596893    -2.7913228    -1.0847397
H          -0.7823880    -3.4556538    -1.2632645
C           0.9514555    -2.4970472    -2.1160832
H           0.8173256    -2.9195845    -3.1071985
C           2.0236950    -1.6482448    -1.8499131
H           2.7235046    -1.4074192    -2.6461264
C           5.6706629     1.3449583    -0.0097551
H           6.5144595     2.0085500     0.1519543
C           4.4236302     1.6376755     0.5386414
H           4.2819419     2.5350451     1.1392120
N           3.3393932     0.8731022     0.3713739
C           3.4480651    -0.2607817    -0.3560670
C           4.6789283    -0.6426582    -0.9221198
H           4.7522988    -1.5750889    -1.4714401
C           5.7947830     0.1694921    -0.7508756
H           6.7510058    -0.1161607    -1.1816261
26
426_C12H12N2_1-0-21-20 (-30,) energy =    -574.0096181
C           2.2698899    -1.1208123    -0.5751096
C           1.2932491    -1.3440734     0.4506786
N           1.4142462    -0.7504806     1.6842638
C           0.3923355    -0.8336915     2.7027770
H          -0.5894498    -0.4631373     2.3649157
H           0.7086842    -0.2313354     3.5583886
H           0.2591344    -1.8655492     3.0530417
H           2.0233717     0.0617886     1.6869479
C           0.2178380    -2.2175219     0.1721007
H          -0.5230499    -2.4059803     0.9410334
C           0.0817425    -2.8299778    -1.0672123
H          -0.7659754    -3.4876147    -1.2438109
C           1.0087392    -2.5895156    -2.0830888
H           0.8949185    -3.0435351    -3.0626882
C           2.0825374    -1.7462412    -1.8191106
H           2.7911680    -1.5382834    -2.6155165
C           5.6943060     1.3423445    -0.0055121
H           6.5326539     2.0101712     0.1658713
C           4.4972295     1.5126864     0.6833342
H           4.3872601     2.3170891     1.4090968
N           3.4245295     0.7319768     0.5156858
C           3.4824487    -0.2921951    -0.3661017
C           4.6746679    -0.5526356    -1.0747694
H           4.7372413    -1.4095598    -1.7356337
C           5.7778252     0.2722349    -0.8983353
H           6.6985194     0.0742879    -1.4411394
26
426_C12H12N2_1-0-21-20 (-15,) energy =    -574.0095251
C           2.2980441    -1.1691948    -0.5577964
C           1.2772108    -1.3299015     0.4431247
N           1.3495590    -0.6920591     1.6511299
C           0.3218160    -0.7576412     2.6622621
H          -0.6561273    -0.3992243     2.3033520
H           0.6258955    -0.1286528     3.5029287
H           0.1855631    -1.7801169     3.0409913
H           2.0577345     0.0353606     1.7006675
C           0.1922211    -2.1968384     0.1649328
H          -0.5752491    -2.3362523     0.9178948
C           0.0817700    -2.8612744    -1.0464393
H          -0.7719598    -3.5116907    -1.2207890
C           1.0471092    -2.6821338    -2.0407503
H           0.9571743    -3.1767754    -3.0029527
C           2.1240664    -1.8456358    -1.7807173
H           2.8478059    -1.6885052    -2.5732719
C           5.7059810     1.3352096     0.0167106
H           6.5414407     2.0027219     0.2019900
C           4.5751478     1.3679602     0.8237586
H           4.5116931     2.0617064     1.6607667
N           3.5119740     0.5761781     0.6471829
C           3.4986327    -0.3181228    -0.3696684
C           4.6324157    -0.4345305    -1.2073706
H           4.6681618    -1.1875895    -1.9847152
C           5.7266453     0.3964078    -1.0176016
H           6.5958259     0.3036508    -1.6636900
26
426_C12H12N2_1-0-21-20 (0,) energy =    -574.0089820
C           2.3336792    -1.1953033    -0.5265701
C           1.2739197    -1.2926796     0.4458702
N           1.2998652    -0.5915674     1.6164888
C           0.2774759    -0.6555818     2.6316299
H          -0.7016856    -0.3147470     2.2630425
H           0.5716523    -0.0022937     3.4571069
H           0.1490124    -1.6717631     3.0335334
H           2.1204032    -0.0043467     1.7451486
C           0.1755848    -2.1451065     0.1666015
H          -0.6250397    -2.2211376     0.8935126
C           0.0989622    -2.8782713    -1.0050748
H          -0.7619756    -3.5194712    -1.1780810
C           1.1199008    -2.7934634    -1.9562409
H           1.0730465    -3.3626691    -2.8794822
C           2.2021699    -1.9643763    -1.7009051
H           2.9795905    -1.9164852    -2.4542824
C           5.7520620     1.3028692     0.0773150
H           6.5962910     1.9531485     0.2826580
C           4.7087555     1.1774245     0.9849573
H           4.7199254     1.7313876     1.9224658
N           3.6426969     0.3940948     0.7893891
C           3.5321977    -0.3378289    -0.3458644
C           4.5614700    -0.2576062    -1.3151200
H           4.5092742    -0.8271681    -2.2336513
C           5.6617969     0.5580652    -1.1013909
H           6.4464360     0.6127410    -1.8516317
26
426_C12H12N2_1-0-21-20 (15,) energy =    -574.0095251
C           2.3569938    -1.2138225    -0.4967411
C           1.2614416    -1.2590592     0.4346703
N           1.2511931    -0.4939006     1.5685980
C           0.2168563    -0.5525469     2.5734337
H          -0.7585071    -0.2405556     2.1749366
H           0.4823538     0.1349269     3.3807133
H           0.0966461    -1.5583060     3.0066030
H           2.1423535    -0.0578482     1.7894973
C           0.1611319    -2.1007146     0.1395102
H          -0.6762998    -2.1315855     0.8273749
C           0.1328377    -2.8917541    -0.9982538
H          -0.7288029    -3.5290001    -1.1820727
C           1.2087753    -2.8852022    -1.8898372
H           1.2088449    -3.5202800    -2.7703253
C           2.2903529    -2.0568793    -1.6228799
H           3.1334600    -2.0870694    -2.3047098
C           5.7811449     1.2629449     0.1010924
H           6.6405386     1.8917523     0.3107068
C           4.8480736     0.9783026     1.0908086
H           4.9616657     1.3876931     2.0934992
N           3.7711295     0.2090212     0.8988869
C           3.5467240    -0.3460806    -0.3157916
C           4.4337957    -0.0670932    -1.3816398
H           4.2369302    -0.4475306    -2.3761968
C           5.5504060     0.7276160    -1.1684534
H           6.2295334     0.9394014    -1.9903071
26
426_C12H12N2_1-0-21-20 (30,) energy =    -574.0096180
C           2.3805399    -1.2668892    -0.4661776
C           1.2525749    -1.2555540     0.4190354
N           1.2247067    -0.4325717     1.5193483
C           0.1765302    -0.4790828     2.5132091
H          -0.7916068    -0.1836359     2.0882734
H           0.4215886     0.2324187     3.3061142
H           0.0542275    -1.4749947     2.9699161
H           2.1430110    -0.1127541     1.8113908
C           0.1535846    -2.0897604     0.1134523
H          -0.7118642    -2.0845911     0.7666468
C           0.1617735    -2.9245230    -0.9967730
H          -0.7004685    -3.5579849    -1.1905745
C           1.2708080    -2.9678602    -1.8436817
H           1.2957624    -3.6368493    -2.6983980
C           2.3532919    -2.1400847    -1.5664668
H           3.2269546    -2.1903330    -2.2097574
C           5.7847157     1.2248181     0.0996931
H           6.6513878     1.8462222     0.3019266
C           4.9650023     0.7902564     1.1368484
H           5.1794307     1.0725514     2.1665290
N           3.8874558     0.0183369     0.9598867
C           3.5513019    -0.3729105    -0.2906226
C           4.3117505     0.0588344    -1.3982364
H           4.0053669    -0.2068436    -2.4034681
C           5.4341621     0.8519878    -1.1993286
H           6.0217877     1.1879045    -2.0498439
26
426_C12H12N2_1-0-21-20 (45,) energy =    -574.0081813
C           2.4153938    -1.3021346    -0.4304378
C           1.2593948    -1.2310445     0.4065361
N           1.2265295    -0.3539955     1.4729386
C           0.1624850    -0.3746151     2.4535949
H          -0.7962259    -0.0951871     1.9995428
H           0.3901024     0.3645467     3.2262446
H           0.0328849    -1.3558727     2.9400383
H           2.1504351    -0.1162579     1.8176977
C           0.1590147    -2.0569714     0.0983869
H          -0.7293128    -2.0145579     0.7189312
C           0.1942110    -2.9335217    -0.9821805
H          -0.6707638    -3.5609910    -1.1831686
C           1.3280467    -3.0229786    -1.7895929
H           1.3669750    -3.7185244    -2.6223880
C           2.4149739    -2.1982719    -1.5077498
H           3.3063881    -2.2611717    -2.1266910
C           5.7954631     1.2159126     0.0932615
H           6.6679203     1.8333871     0.2831054
C           5.0970775     0.6324607     1.1484214
H           5.4171040     0.7920971     2.1770751
N           4.0227692    -0.1475278     0.9884205
C           3.5668704    -0.3792394    -0.2626150
C           4.1992800     0.1944522    -1.3816503
H           3.7951220     0.0249338    -2.3738539
C           5.3236192     0.9926400    -1.2005380
H           5.8191239     1.4427244    -2.0569285
26
426_C12H12N2_1-0-21-20 (60,) energy =    -574.0052128
C           2.4390868    -1.3547882    -0.3946130
C           1.2584208    -1.2287650     0.3914240
N           1.2176874    -0.2964196     1.4185926
C           0.1369652    -0.2858135     2.3841046
H          -0.8096996    -0.0106809     1.9039888
H           0.3558941     0.4720597     3.1409871
H          -0.0094005    -1.2535457     2.8924229
H           2.1349107    -0.1037765     1.8043763
C           0.1583168    -2.0508416     0.0845261
H          -0.7511186    -1.9717452     0.6701621
C           0.2205819    -2.9708133    -0.9610100
H          -0.6455087    -3.5948154    -1.1677558
C           1.3774820    -3.1029264    -1.7270146
H           1.4311570    -3.8260618    -2.5352460
C           2.4676219    -2.2792020    -1.4428273
H           3.3742171    -2.3582755    -2.0381452
C           5.7956601     1.1927269     0.1023202
H           6.6719443     1.8089093     0.2793417
C           5.2354539     0.4437075     1.1365389
H           5.6710967     0.4709656     2.1343618
N           4.1667554    -0.3474231     0.9887655
C           3.5784267    -0.4112449    -0.2244959
C           4.0677393     0.3218348    -1.3182285
H           3.5606869     0.2581307    -2.2754949
C           5.1890814     1.1300364    -1.1517042
H           5.5803682     1.7053207    -1.9868378
26
426_C12H12N2_1-0-21-20 (75,) energy =    -574.0017352
C           2.4629429    -1.3975855    -0.4014120
C           1.2646436    -1.2266006     0.3409073
N           1.2090600    -0.2394732     1.3208218
C           0.1123306    -0.1881335     2.2685814
H          -0.8248064     0.0654102     1.7594032
H           0.3178146     0.6025701     2.9950216
H          -0.0428694    -1.1331778     2.8152155
H           2.1151429    -0.0411868     1.7268742
C           0.1667267    -2.0537580     0.0453862
H          -0.7581154    -1.9424679     0.6010627
C           0.2519137    -3.0207090    -0.9564758
H          -0.6127864    -3.6473707    -1.1608468
C           1.4279726    -3.1935465    -1.6831042
H           1.4971723    -3.9497634    -2.4593357
C           2.5185334    -2.3661246    -1.4045858
H           3.4395245    -2.4724931    -1.9728951
C           5.8096512     1.1648477     0.0931644
H           6.6893336     1.7788319     0.2616535
C           5.4088273     0.2276254     1.0449972
H           5.9739127     0.1036300     1.9678857
N           4.3449230    -0.5726047     0.9018347
C           3.6072621    -0.4532094    -0.2202244
C           3.9306882     0.4693653    -1.2268287
H           3.3067100     0.5359956    -2.1123238
C           5.0467946     1.2874584    -1.0674516
H           5.3156792     2.0079633    -1.8356244
26
426_C12H12N2_1-0-21-20 (90,) energy =    -573.9994732
C           2.4715900    -1.4201612    -0.4212901
C           1.2654378    -1.2143696     0.2952072
N           1.1855942    -0.1644929     1.2085340
C           0.0845575    -0.0716365     2.1485840
H          -0.8560468     0.1208460     1.6198374
H           0.2672256     0.7753702     2.8152423
H          -0.0495092    -0.9778569     2.7622386
H           2.0825583     0.0890776     1.6018031
C           0.1759094    -2.0653758     0.0385195
H          -0.7558684    -1.9298692     0.5770391
C           0.2802092    -3.0905221    -0.9014442
H          -0.5785466    -3.7333019    -1.0789136
C           1.4680172    -3.3010517    -1.5982947
H           1.5516745    -4.1037702    -2.3248359
C           2.5532319    -2.4569186    -1.3505686
H           3.4871336    -2.6004045    -1.8884428
C           5.8278962     1.1262694     0.1100080
H           6.7124785     1.7330005     0.2798875
C           5.5883510    -0.0065809     0.8872067
H           6.2854263    -0.2919162     1.6740903
N           4.5250620    -0.8070074     0.7339676
C           3.6354864    -0.4963951    -0.2282614
C           3.7884777     0.6308081    -1.0500670
H           3.0410820     0.8463102    -1.8071580
C           4.9010448     1.4514193    -0.8798884
H           5.0425036     2.3266166    -1.5087932
26
426_C12H12N2_1-0-21-20 (105,) energy =    -573.9995607
C           2.4745653    -1.4239112    -0.4592453
C           1.2560728    -1.1979912     0.2309902
N           1.1306007    -0.0939171     1.0718461
C           0.0293868     0.0190697     2.0093849
H          -0.9188282     0.1577657     1.4769436
H           0.1911831     0.9041876     2.6302452
H          -0.0767171    -0.8571601     2.6698446
H           2.0129662     0.2495730     1.4258490
C           0.1866426    -2.0863174     0.0161412
H          -0.7542852    -1.9348947     0.5340625
C           0.3227097    -3.1692220    -0.8513172
H          -0.5220146    -3.8378228    -0.9980689
C           1.5259519    -3.4052153    -1.5134439
H           1.6364558    -4.2551080    -2.1802602
C           2.5932539    -2.5311485    -1.3004786
H           3.5447052    -2.7023824    -1.7972181
C           5.8487108     1.0876891     0.1214754
H           6.7406194     1.6820866     0.2966666
C           5.7349254    -0.1940259     0.6601350
H           6.5401345    -0.6087619     1.2653096
N           4.6682967    -0.9854392     0.4903599
C           3.6508592    -0.5199078    -0.2591426
C           3.6714642     0.7631222    -0.8302013
H           2.8232614     1.1025782    -1.4165664
C           4.7865564     1.5756646    -0.6390421
H           4.8270980     2.5687763    -1.0790340
26
426_C12H12N2_1-0-21-20 (120,) energy =    -574.0012191
C           2.4746388    -1.4240996    -0.4510215
C           1.2368106    -1.1775301     0.2007387
N           1.0728136    -0.0413913     0.9924527
C          -0.0496637     0.0872819     1.9033098
H          -0.9890099     0.1885121     1.3475470
H           0.0846098     0.9985869     2.4920519
H          -0.1539242    -0.7645765     2.5950433
H           1.9408413     0.3317657     1.3523903
C           0.1809077    -2.0861126     0.0021839
H          -0.7729454    -1.9186791     0.4903536
C           0.3449895    -3.2086351    -0.8072077
H          -0.4918039    -3.8894820    -0.9425423
C           1.5678586    -3.4687233    -1.4237533
H           1.7022749    -4.3504659    -2.0431147
C           2.6224945    -2.5787156    -1.2247664
H           3.5914273    -2.7689546    -1.6776545
C           5.8853877     1.0443803     0.0908621
H           6.7912718     1.6223182     0.2479008
C           5.8477789    -0.3141925     0.4065491
H           6.7286846    -0.8074196     0.8158387
N           4.7694498    -1.0898359     0.2484227
C           3.6556358    -0.5304709    -0.2641024
C           3.5999152     0.8319917    -0.6071278
H           2.6826923     1.2459208    -1.0141013
C           4.7294742     1.6268498    -0.4277589
H           4.7090232     2.6801946    -0.6955068
26
426_C12H12N2_1-0-21-20 (135,) energy =    -574.0027493
C           2.4951937    -1.4300877    -0.3976989
C           1.2288302    -1.1630077     0.1933552
N           1.0273471    -0.0135955     0.9583678
C          -0.1368117     0.1264226     1.8146581
H          -1.0485995     0.2243786     1.2145254
H          -0.0270454     1.0434277     2.3996012
H          -0.2755186    -0.7180578     2.5092043
H           1.8771545     0.3586861     1.3608659
C           0.1802103    -2.0766388    -0.0229563
H          -0.7927994    -1.8917513     0.4184539
C           0.3728407    -3.2245086    -0.7879948
H          -0.4604294    -3.9064577    -0.9385432
C           1.6212771    -3.5068658    -1.3408944
H           1.7793064    -4.4076673    -1.9263579
C           2.6672851    -2.6123851    -1.1280730
H           3.6533210    -2.8143033    -1.5347544
C           5.9322527     1.0295897     0.0237464
H           6.8489830     1.6000927     0.1387098
C           5.9367574    -0.3591777     0.1621023
H           6.8645626    -0.8850230     0.3850160
N           4.8495019    -1.1263518     0.0442789
C           3.6717881    -0.5307203    -0.2358805
C           3.5757446     0.8634629    -0.4049218
H           2.6195740     1.3119034    -0.6539233
C           4.7186638     1.6482243    -0.2717934
H           4.6621208     2.7253008    -0.4076665
26
426_C12H12N2_1-0-21-20 (150,) energy =    -574.0028729
C           2.5196497    -1.4425154    -0.3235436
C           1.2242607    -1.1525387     0.1946058
N           0.9917875     0.0011531     0.9486757
C          -0.2257297     0.1549550     1.7267108
H          -1.0932008     0.2626601     1.0663021
H          -0.1439311     1.0721230     2.3160215
H          -0.4204897    -0.6865111     2.4113095
H           1.8170408     0.3364556     1.4283656
C           0.1770815    -2.0576144    -0.0611406
H          -0.8148629    -1.8524941     0.3251995
C           0.3921061    -3.2229895    -0.7917668
H          -0.4417126    -3.8965636    -0.9734900
C           1.6651217    -3.5310321    -1.2696103
H           1.8432607    -4.4441613    -1.8297793
C           2.7076250    -2.6422680    -1.0260360
H           3.7075058    -2.8559803    -1.3879885
C           5.9711334     1.0304362    -0.0636436
H           6.8937145     1.5997378    -0.0033297
C           5.9936880    -0.3652771    -0.0770655
H           6.9427237    -0.8989470    -0.0343014
N           4.9022543    -1.1292258    -0.1407331
C           3.6918495    -0.5318216    -0.1933589
C           3.5779636     0.8725326    -0.2150854
H           2.6039803     1.3375980    -0.3176061
C           4.7285728     1.6546627    -0.1462486
H           4.6518558     2.7388192    -0.1701996
26
426_C12H12N2_1-0-21-20 (165,) energy =    -574.0011144
C           2.5416957    -1.4629521    -0.2356578