26
426_C12H12N2_0-1-2-3 (-165,) energy =    -574.0030416
C           2.5095458    -1.4337603    -0.3568387
C           1.2238858    -1.1540648     0.1881085
N           0.9996217    -0.0019159     0.9446465
C          -0.1914170     0.1372772     1.7646755
H          -1.0831643     0.2404656     1.1362865
H          -0.0975076     1.0516955     2.3563780
H          -0.3540587    -0.7098114     2.4506660
H           1.8360295     0.3577942     1.3853053
C           0.1782951    -2.0655535    -0.0514102
H          -0.8077335    -1.8698155     0.3547786
C           0.3884540    -3.2247592    -0.7935790
H          -0.4437522    -3.9036250    -0.9626383
C           1.6534893    -3.5209178    -1.2996299
H           1.8264611    -4.4298166    -1.8681728
C           2.6952852    -2.6274159    -1.0680793
H           3.6912144    -2.8353123    -1.4451502
C           5.9513676     1.0375869    -0.0193521
H           6.8711594     1.6080889     0.0670061
C           5.9712265    -0.3571879     0.0328363
H           6.9146211    -0.8883218     0.1557538
N           4.8825799    -1.1239816    -0.0568122
C           3.6816164    -0.5263160    -0.2107018
C           3.5710040     0.8751978    -0.2969336
H           2.6022031     1.3326399    -0.4661132
C           4.7175155     1.6599491    -0.1974251
H           4.6460628     2.7422464    -0.2705703
26
426_C12H12N2_0-1-2-3 (-150,) energy =    -574.0022440
C           2.4826812    -1.4221638    -0.3747905
C           1.1815435    -1.1076127     0.1086418
N           0.9369552     0.0584673     0.8455454
C          -0.1242944     0.0730547     1.8461902
H          -1.1099286     0.1227842     1.3709122
H          -0.0106816     0.9747684     2.4538964
H          -0.1077509    -0.8068386     2.5082188
H           1.7919052     0.4638531     1.2055806
C           0.1358743    -2.0169619    -0.1371389
H          -0.8616912    -1.7929381     0.2249275
C           0.3573653    -3.2016822    -0.8330347
H          -0.4762818    -3.8765970    -1.0103154
C           1.6362860    -3.5270578    -1.2852337
H           1.8184815    -4.4557099    -1.8178674
C           2.6791816    -2.6377662    -1.0463113
H           3.6855716    -2.8683189    -1.3801876
C           5.9279357     1.0345347     0.0120651
H           6.8477096     1.6018502     0.1171961
C           5.9337998    -0.3572459     0.1228974
H           6.8662670    -0.8887214     0.3104435
N           4.8441115    -1.1201784     0.0158820
C           3.6571515    -0.5210009    -0.2183652
C           3.5626464     0.8758870    -0.3716659
H           2.6082892     1.3327441    -0.6128490
C           4.7096860     1.6572930    -0.2502567
H           4.6510948     2.7358382    -0.3727791
26
426_C12H12N2_0-1-2-3 (-135,) energy =    -574.0002282
C           2.4473731    -1.4110631    -0.3939066
C           1.1371263    -1.0680296     0.0378749
N           0.8700769     0.1080760     0.7619842
C          -0.0058684     0.0213538     1.9323593
H          -1.0539537    -0.0769704     1.6325938
H           0.0826179     0.9546521     2.4956032
H           0.2418235    -0.8213417     2.5959600
H           1.7304427     0.5801224     1.0131670
C           0.0889678    -1.9712518    -0.2185126
H          -0.9162955    -1.7193397     0.1034603
C           0.3156380    -3.1759590    -0.8752218
H          -0.5202993    -3.8451002    -1.0629806
C           1.6046372    -3.5263871    -1.2812527
H           1.7915036    -4.4700550    -1.7852181
C           2.6499644    -2.6434157    -1.0347656
H           3.6629353    -2.8931916    -1.3335503
C           5.8965161     1.0289425     0.0446575
H           6.8155014     1.5934182     0.1698726
C           5.8823031    -0.3557777     0.2238597
H           6.7984810    -0.8843833     0.4850064
N           4.7915044    -1.1147985     0.0984998
C           3.6257161    -0.5175195    -0.2263982
C           3.5542333     0.8697540    -0.4575076
H           2.6205019     1.3208741    -0.7793915
C           4.7009981     1.6480236    -0.3130918
H           4.6608282     2.7193247    -0.4927237
26
426_C12H12N2_0-1-2-3 (-120,) energy =    -573.9978775
C           2.4134579    -1.4060789    -0.4134507
C           1.0957953    -1.0457382    -0.0287138
N           0.7971370     0.1389511     0.6840832
C           0.1556305    -0.0225718     1.9952301
H          -0.8580982    -0.4160815     1.8827404
H           0.0741573     0.9634504     2.4626915
H           0.7100843    -0.6927766     2.6707939
H           1.6351131     0.6963987     0.8061903
C           0.0469184    -1.9400860    -0.3086699
H          -0.9647012    -1.6596247    -0.0310242
C           0.2802322    -3.1593109    -0.9338312
H          -0.5551496    -3.8230163    -1.1419455
C           1.5795893    -3.5271145    -1.2925210
H           1.7724354    -4.4806006    -1.7755484
C           2.6253810    -2.6499021    -1.0312904
H           3.6439457    -2.9137489    -1.2978583
C           5.8591455     1.0193886     0.1122453
H           6.7746692     1.5821106     0.2671519
C           5.8173592    -0.3536694     0.3624029
H           6.7089874    -0.8749803     0.7089204
N           4.7276494    -1.1095665     0.2069782
C           3.5936514    -0.5190852    -0.2227716
C           3.5537401     0.8531562    -0.5345137
H           2.6506494     1.2927829    -0.9483322
C           4.6974320     1.6290393    -0.3561744
H           4.6824349     2.6892563    -0.5952092
26
426_C12H12N2_0-1-2-3 (-105,) energy =    -573.9956709
C           2.3761069    -1.3978089    -0.4189554
C           1.0519750    -1.0282389    -0.0743009
N           0.7202710     0.1570046     0.6391340
C           0.3530162    -0.0531643     2.0487329
H          -0.5482930    -0.6689185     2.1117540
H           0.1275388     0.9182629     2.5001669
H           1.1437550    -0.5455083     2.6371776
H           1.5009169     0.8049981     0.6196958
C           0.0059400    -1.9193855    -0.3665177
H          -1.0073269    -1.6211848    -0.1122513
C           0.2466942    -3.1485131    -0.9699094
H          -0.5853058    -3.8124391    -1.1900787
C           1.5533239    -3.5223931    -1.2951374
H           1.7531368    -4.4812743    -1.7648417
C           2.5984836    -2.6478608    -1.0205663
H           3.6210334    -2.9208862    -1.2622023
C           5.8059807     1.0256990     0.2031893
H           6.7150711     1.5897402     0.3882555
C           5.7374437    -0.3334629     0.5144330
H           6.6012019    -0.8430863     0.9397478
N           4.6526262    -1.0901322     0.3264436
C           3.5540550    -0.5131012    -0.2000424
C           3.5451586     0.8420176    -0.5791043
H           2.6748182     1.2642582    -1.0739939
C           4.6815728     1.6196375    -0.3662298
H           4.6913761     2.6671568    -0.6559684
26
426_C12H12N2_0-1-2-3 (-90,) energy =    -573.9962262
C           2.4726702    -1.3361611    -0.3971705
C           1.1222732    -1.0010152    -0.1372882
N           0.7602145     0.2810658     0.3960212
C           0.7287567     0.3310898     1.8670513
H           0.0765853    -0.4338200     2.3185983
H           0.3834541     1.3214797     2.1812077
H           1.7411415     0.1868164     2.2562073
H          -0.1717765     0.5092356     0.0550425
C           0.1121019    -1.9203442    -0.4537903
H          -0.9215403    -1.6462880    -0.2498489
C           0.4035571    -3.1631729    -1.0103327
H          -0.4006177    -3.8526839    -1.2534946
C           1.7343920    -3.5126440    -1.2388162
H           1.9844513    -4.4803203    -1.6649937
C           2.7460479    -2.6101843    -0.9259266
H           3.7844906    -2.8705450    -1.0969780
C           5.9231007     1.0627907     0.2628894
H           6.8457117     1.6106027     0.4304425
C           5.9030672    -0.3308397     0.3142997
H           6.8162372    -0.8872305     0.5233522
N           4.8061541    -1.0660249     0.1202247
C           3.6401915    -0.4377942    -0.1365525
C           3.5677949     0.9647237    -0.2134491
H           2.6158172     1.4379314    -0.4146533
C           4.7228019     1.7156740    -0.0128268
H           4.6834801     2.8003339    -0.0754237
26
426_C12H12N2_0-1-2-3 (-75,) energy =    -573.9979675
C           2.4362394    -1.3630528    -0.3700414
C           1.0772089    -1.0219968    -0.1546781
N           0.6943721     0.2336748     0.4008790
C           0.9129343     0.3861406     1.8477287
H           0.4230898    -0.3981057     2.4462703
H           0.5271991     1.3619514     2.1597278
H           1.9836556     0.3634674     2.0649718
H          -0.2915540     0.3873677     0.2044463
C           0.0771651    -1.9309115    -0.5329408
H          -0.9636014    -1.6604855    -0.3628351
C           0.3863921    -3.1644955    -1.0991151
H          -0.4122811    -3.8432371    -1.3867838
C           1.7228823    -3.5245558    -1.2709120
H           1.9844560    -4.4887811    -1.6975577
C           2.7242429    -2.6318146    -0.9018593
H           3.7681729    -2.8929582    -1.0354329
C           5.8586937     1.0678347     0.3051218
H           6.7744166     1.6261477     0.4754391
C           5.8455330    -0.3236601     0.3995484
H           6.7571131    -0.8673964     0.6455463
N           4.7575467    -1.0723126     0.2048124
C           3.5944962    -0.4592413    -0.0967318
C           3.5155520     0.9400654    -0.2186050
H           2.5661659     1.4015462    -0.4609262
C           4.6610193     1.7047626    -0.0169068
H           4.6172282     2.7865945    -0.1150141
26
426_C12H12N2_0-1-2-3 (-60,) energy =    -573.9981471
C           2.4197369    -1.3773573    -0.3240269
C           1.0568770    -1.0271542    -0.1428770
N           0.6475160     0.1799564     0.4738298
C           1.0639968     0.4363241     1.8578805
H           0.7866490    -0.3751715     2.5490856
H           0.5868834     1.3620949     2.1942674
H           2.1439424     0.5797244     1.9145148
H          -0.3605629     0.2724017     0.3984692
C           0.0654694    -1.9156192    -0.5948128
H          -0.9793873    -1.6453839    -0.4509628
C           0.3860687    -3.1312137    -1.1897771
H          -0.4079886    -3.7909321    -1.5299271
C           1.7242391    -3.5065082    -1.3153362
H           1.9931532    -4.4612571    -1.7579887
C           2.7158887    -2.6332778    -0.8816000
H           3.7628395    -2.8967309    -0.9869566
C           5.8261596     1.0758111     0.3236706
H           6.7378274     1.6430249     0.4857525
C           5.8073489    -0.3068141     0.5044705
H           6.7102281    -0.8339498     0.8109842
N           4.7240320    -1.0675808     0.3245503
C           3.5738003    -0.4723034    -0.0490395
C           3.5012574     0.9168016    -0.2617536
H           2.5604383     1.3628739    -0.5639111
C           4.6402624     1.6935464    -0.0734740
H           4.6027037     2.7670836    -0.2406924
26
426_C12H12N2_0-1-2-3 (-45,) energy =    -573.9969826
C           2.4080541    -1.3814930    -0.2959758
C           1.0371300    -1.0506343    -0.1386356
N           0.5794756     0.0987398     0.5284949
C           1.1434601     0.5125229     1.8151567
H           1.3938245    -0.3433677     2.4590236
H           0.3987699     1.1270246     2.3294542
H           2.0445956     1.1171318     1.6897679
H          -0.4323762     0.1157844     0.5495787
C           0.0698729    -1.9387268    -0.6505828
H          -0.9826387    -1.6857078    -0.5323524
C           0.4233521    -3.1341987    -1.2619343
H          -0.3536073    -3.7924863    -1.6421732
C           1.7694052    -3.4980349    -1.3517377
H           2.0604982    -4.4408684    -1.8053638
C           2.7354886    -2.6233284    -0.8708436
H           3.7890104    -2.8695093    -0.9531759
C           5.7583223     1.1410321     0.3562013
H           6.6564453     1.7287559     0.5205710
C           5.7480320    -0.2293344     0.6154489
H           6.6445557    -0.7252521     0.9860612
N           4.6820344    -1.0151364     0.4376966
C           3.5413283    -0.4567404    -0.0130163
C           3.4628687     0.9159507    -0.3129016
H           2.5342189     1.3298248    -0.6924153
C           4.5835955     1.7189958    -0.1255216
H           4.5420451     2.7797142    -0.3599883
26
426_C12H12N2_0-1-2-3 (-30,) energy =    -573.9955653
C           2.3536496    -1.4287618    -0.2808551
C           0.9851162    -1.0909188    -0.1102755
N           0.5266548     0.0030339     0.6237760
C           1.2103638     0.5734922     1.7769323
H           1.8305065    -0.1736865     2.2884631
H           0.4554835     0.9320941     2.4837208
H           1.8545815     1.4185450     1.5122323
H          -0.4799202     0.0150989     0.7026860
C           0.0107586    -1.9515250    -0.6628520
H          -1.0400116    -1.6925898    -0.5417219
C           0.3569066    -3.1276274    -1.3107757
H          -0.4250950    -3.7638151    -1.7176256
C           1.7002445    -3.5045792    -1.4077659
H           1.9830327    -4.4346053    -1.8917260
C           2.6710665    -2.6543717    -0.8959360
H           3.7232090    -2.9054733    -0.9855481
C           5.7213525     1.0587006     0.4079660
H           6.6224082     1.6381861     0.5849955
C           5.6776345    -0.3003338     0.7193118
H           6.5512845    -0.7947877     1.1428234
N           4.6062461    -1.0768352     0.5314833
C           3.4938047    -0.5178761     0.0148359
C           3.4531744     0.8414958    -0.3473912
H           2.5531232     1.2515040    -0.7948376
C           4.5781869     1.6350826    -0.1460234
H           4.5659729     2.6850456    -0.4276349
26
426_C12H12N2_0-1-2-3 (-15,) energy =    -573.9935732
C           2.3707853    -1.4277463    -0.2735856
C           0.9993772    -1.1210581    -0.0615739
N           0.5237099    -0.0983263     0.7455453
C           1.2461337     0.6589255     1.7475776
H           2.0088614     0.0423496     2.2374314
H           0.5321823     0.9829601     2.5114957
H           1.7441275     1.5503045     1.3466224
H          -0.4812652    -0.0701816     0.8200331
C           0.0308638    -1.9804162    -0.6331336
H          -1.0221875    -1.7452438    -0.4860725
C           0.3864040    -3.1254748    -1.3272603
H          -0.3922073    -3.7587926    -1.7451498
C           1.7342405    -3.4759361    -1.4621865
H           2.0245892    -4.3826188    -1.9842063
C           2.6972316    -2.6251137    -0.9376478
H           3.7521477    -2.8525824    -1.0568426
C           5.7176875     1.0829707     0.4352071
H           6.6121200     1.6697917     0.6214676
C           5.6655072    -0.2651708     0.7899809
H           6.5263404    -0.7436394     1.2559888
N           4.6009086    -1.0501025     0.5959337
C           3.5048723    -0.5101711     0.0263315
C           3.4774485     0.8345093    -0.3885881
H           2.5965367     1.2247174    -0.8890274
C           4.5936634     1.6377986    -0.1767467
H           4.5909320     2.6768058    -0.4966534
26
426_C12H12N2_0-1-2-3 (0,) energy =    -573.9933687
C           2.3853615    -1.2607589    -0.4640070
C           1.1508107    -1.3622305     0.2368465
N           0.7160316    -0.5296961     1.2485455
C           1.3600500     0.6193344     1.8485083
H           2.1915490     0.3515220     2.5101248
H           0.6028979     1.1645567     2.4208681
H           1.7456379     1.2958184     1.0781217
H          -0.1283432    -0.8405631     1.7036547
C           0.2317961    -2.3533430    -0.1895378
H          -0.7117397    -2.4438634     0.3462784
C           0.4809503    -3.1762056    -1.2746792
H          -0.2592323    -3.9192390    -1.5610156
C           1.6681972    -3.0409977    -2.0007242
H           1.8775790    -3.6756636    -2.8562559
C           2.5913107    -2.0917245    -1.5820322
H           3.5412724    -2.0065586    -2.1036614
C           5.7944233     1.0224402     0.6271188
H           6.6833706     1.5565933     0.9489670
C           5.1205060     0.1727464     1.5037402
H           5.4811613     0.0391447     2.5231129
N           4.0267777    -0.5263016     1.1796733
C           3.5368130    -0.3986128    -0.0701726
C           4.1447959     0.4472160    -1.0165783
H           3.7125080     0.5421436    -2.0078075
C           5.2854008     1.1618620    -0.6641022
H           5.7647378     1.8217278    -1.3828110
26
426_C12H12N2_0-1-2-3 (15,) energy =    -573.9939951
C           2.4227569    -1.2511649    -0.4447672
C           1.2107468    -1.3908729     0.2889133
N           0.8222395    -0.6183604     1.3652678
C           1.3656564     0.6510645     1.8060035
H           2.2754141     0.5247244     2.3996400
H           0.6070572     1.1481587     2.4180475
H           1.6000558     1.3091452     0.9586093
H          -0.1051494    -0.8264070     1.7013897
C           0.2842573    -2.3697713    -0.1477160
H          -0.6414525    -2.4879139     0.4133468
C           0.5066741    -3.1521079    -1.2681844
H          -0.2383929    -3.8874108    -1.5615769
C           1.6730926    -2.9840785    -2.0205896
H           1.8626460    -3.5879368    -2.9026591
C           2.6025617    -2.0444317    -1.5948841
H           3.5370000    -1.9370807    -2.1395937
C           5.8468235     1.0103487     0.6450055
H           6.7396702     1.5382171     0.9663647
C           5.1574308     0.1785956     1.5264422
H           5.5091827     0.0529479     2.5499250
N           4.0572943    -0.5109661     1.2032884
C           3.5779268    -0.3952002    -0.0514930
C           4.2002309     0.4363111    -1.0022904
H           3.7745024     0.5280463    -1.9966164
C           5.3458787     1.1422834    -0.6503721
H           5.8354707     1.7905477    -1.3727294
26
426_C12H12N2_0-1-2-3 (30,) energy =    -573.9955652
C           2.3900976    -1.4363806    -0.3039785
C           1.1804008    -1.4411927     0.4394503
N           0.6704037    -0.3392437     1.1261002
C           0.8770090     1.0492962     0.7364048
H           1.7236297     1.5129812     1.2535171
H          -0.0246489     1.6165578     0.9878408
H           1.0507449     1.1437552    -0.3431381
H          -0.2452389    -0.5199077     1.5114781
C           0.3992194    -2.6180606     0.4365473
H          -0.5254096    -2.6293836     1.0116762
C           0.7570600    -3.7314866    -0.3085351
H           0.1246986    -4.6154547    -0.2861545
C           1.9048638    -3.7004179    -1.1070284
H           2.1835158    -4.5569481    -1.7135349
C           2.6986978    -2.5615812    -1.0912674
H           3.6122653    -2.5212258    -1.6759479
C           5.5293939     1.4099072    -0.0877414
H           6.3557014     2.1143389    -0.0932794
C           5.0890366     0.8218591    -1.2735099
H           5.5732744     1.0636144    -2.2191223
N           4.0794956    -0.0509278    -1.3457612
C           3.4390623    -0.3839852    -0.2074193
C           3.8277797     0.1447484     1.0376103
H           3.3142958    -0.1722524     1.9399756
C           4.8817480     1.0513149     1.0946017
H           5.1996545     1.4630774     2.0492005
26
426_C12H12N2_0-1-2-3 (45,) energy =    -573.9969834
C           2.4381793    -1.4106008    -0.2858294
C           1.2361139    -1.4171006     0.4681581
N           0.7786780    -0.3235023     1.2237195
C           0.7957404     1.0384844     0.6852378
H           1.7613618     1.5255436     0.8392697
H           0.0390827     1.6227961     1.2170017
H           0.5666201     1.0677378    -0.3900511
H          -0.1143209    -0.5388348     1.6489918
C           0.4312127    -2.5736385     0.4372923
H          -0.4906654    -2.5811439     1.0168439
C           0.7638743    -3.6773049    -0.3366719
H           0.1150400    -4.5494288    -0.3339737
C           1.9079788    -3.6454738    -1.1381840
H           2.1686389    -4.4913079    -1.7675215
C           2.7226612    -2.5209193    -1.1020097
H           3.6311969    -2.4816659    -1.6938945
C           5.6016153     1.4101099    -0.0660429
H           6.4361644     2.1047856    -0.0702351
C           5.1990555     0.7753708    -1.2408935
H           5.7203809     0.9706408    -2.1774469
N           4.1829015    -0.0893855    -1.3121671
C           3.4956302    -0.3658904    -0.1863984
C           3.8387513     0.2181410     1.0471004
H           3.2764508    -0.0411680     1.9383332
C           4.9021038     1.1137176     1.1039706
H           5.1851792     1.5675627     2.0503909
26
426_C12H12N2_0-1-2-3 (60,) energy =    -573.9981471
C           2.4768901    -1.4222051    -0.2703625
C           1.2700295    -1.4105033     0.4754213
N           0.8764025    -0.3182567     1.2860288
C           0.6856754     0.9920071     0.6523031
H           1.6365276     1.3875174     0.2924279
H           0.3003935     1.6854359     1.4063327
H          -0.0188884     0.9633923    -0.1938549
H           0.0428792    -0.5688895     1.8083996
C           0.4245345    -2.5317926     0.4095229
H          -0.5025464    -2.5179652     0.9802896
C           0.7290766    -3.6344763    -0.3815454
H           0.0524582    -4.4848402    -0.4044861
C           1.8850220    -3.6249798    -1.1632173
H           2.1284513    -4.4680511    -1.8033544
C           2.7357321    -2.5266205    -1.1005433
H           3.6491283    -2.5065332    -1.6852804
C           5.6613931     1.3818445    -0.0767177
H           6.5011609     2.0701623    -0.0888690
C           5.2957552     0.6859420    -1.2285534
H           5.8508758     0.8259560    -2.1555117
N           4.2753859    -0.1743347    -1.2875345
C           3.5458785    -0.3855904    -0.1739142
C           3.8466014     0.2673752     1.0357645
H           3.2404287     0.0726968     1.9133017
C           4.9152963     1.1573346     1.0802644
H           5.1651757     1.6643720     2.0088812
26
426_C12H12N2_0-1-2-3 (75,) energy =    -573.9979675
C           2.5143099    -1.4446273    -0.2440367
C           1.2940228    -1.4113955     0.4766961
N           0.9599307    -0.3300336     1.3432808
C           0.5477493     0.9169378     0.6802679
H           1.3877033     1.3328429     0.1184369
H           0.2632007     1.6443815     1.4472093
H          -0.2974364     0.7816956    -0.0129939
H           0.2108267    -0.6306646     1.9619281
C           0.4046801    -2.4909740     0.3632595
H          -0.5302914    -2.4560115     0.9199157
C           0.6831274    -3.5853379    -0.4508334
H          -0.0242511    -4.4082778    -0.5117229
C           1.8608457    -3.6023607    -1.1978641
H           2.0890099    -4.4407337    -1.8499766
C           2.7522121    -2.5391570    -1.0931177
H           3.6757794    -2.5399267    -1.6613167
C           5.6964576     1.3709749    -0.0874227
H           6.5344257     2.0612423    -0.1120887
C           5.3718265     0.6054562    -1.2072177
H           5.9577977     0.6916686    -2.1217383
N           4.3562299    -0.2600105    -1.2477956
C           3.5874626    -0.4089917    -0.1494897
C           3.8448276     0.3175969     1.0273629
H           3.2080081     0.1755483     1.8918284
C           4.9109465     1.2121638     1.0534347
H           5.1267527     1.7752002     1.9580465
26
426_C12H12N2_0-1-2-3 (90,) energy =    -573.9962262
C           2.5634108    -1.4401637    -0.2251944
C           1.3300517    -1.3744565     0.4661345
N           1.0290979    -0.2890859     1.3553107
C           0.3669215     0.8532076     0.7040816
H           1.0566465     1.3127268    -0.0102723
H           0.1197362     1.6009923     1.4646853
H          -0.5525297     0.5775978     0.1628249
H           0.4051921    -0.6418126     2.0786773
C           0.4027398    -2.4157570     0.3192727
H          -0.5400911    -2.3511277     0.8596493
C           0.6595739    -3.5127012    -0.4992983
H          -0.0742260    -4.3095699    -0.5875451
C           1.8592189    -3.5679120    -1.2087075
H           2.0763661    -4.4108461    -1.8589871
C           2.7861226    -2.5391095    -1.0738240
H           3.7214392    -2.5692882    -1.6212549
C           5.7705122     1.3516680    -0.0976491
H           6.6136917     2.0352276    -0.1319609
C           5.4582944     0.5503777    -1.1956945
H           6.0594017     0.6012257    -2.1030187
N           4.4371940    -0.3087009    -1.2224633
C           3.6491876    -0.4151738    -0.1326073
C           3.8931953     0.3492429     1.0225277
H           3.2383495     0.2449275     1.8774927
C           4.9654846     1.2370877     1.0345147
H           5.1701877     1.8299910     1.9224977
26
426_C12H12N2_0-1-2-3 (105,) energy =    -573.9956709
C           2.4844321    -1.5067859    -0.2267053
C           1.2435095    -1.3522408     0.4402928
N           0.8691834    -0.1813842     1.1563915
C          -0.1133533     0.6737466     0.4712932
H           0.2258518     1.0230753    -0.5170644
H          -0.3210529     1.5433678     1.1028985
H          -1.0509581     0.1283868     0.3335891
H           1.6881776     0.3863239     1.3478181
C           0.2816421    -2.3689086     0.3181696
H          -0.6608195    -2.2486495     0.8450380
C           0.5194348    -3.5050023    -0.4470374
H          -0.2422847    -4.2774254    -0.5151841
C           1.7356838    -3.6517144    -1.1193970
H           1.9312082    -4.5342945    -1.7217434
C           2.7013252    -2.6586435    -1.0014186
H           3.6512616    -2.7519269    -1.5185903
C           5.6888607     1.2727290    -0.0529891
H           6.5141231     1.9778426    -0.0773805
C           5.2277422     0.6778763    -1.2287476
H           5.6989128     0.9110091    -2.1828616
N           4.2122666    -0.1886635    -1.2802473
C           3.5928374    -0.5167967    -0.1288898
C           4.0150738     0.0047891     1.1079473
H           3.5516535    -0.3352193     2.0300833
C           5.0689059     0.9156573     1.1426098
H           5.4084973     1.3255166     2.0902564
26
426_C12H12N2_0-1-2-3 (120,) energy =    -573.9978776
C           2.5088750    -1.4898524    -0.2550053
C           1.2556915    -1.3096468     0.3862114
N           0.9116131    -0.1319687     1.0901081
C          -0.2602856     0.6088569     0.6057583
H          -0.2041209     0.8590973    -0.4653235
H          -0.3446097     1.5352324     1.1820632
H          -1.1756026     0.0349730     0.7731440
H           1.7008464     0.5037813     1.1183791
C           0.2854874    -2.3199957     0.2587879
H          -0.6681116    -2.1930154     0.7624331
C           0.5270412    -3.4680021    -0.4865186
H          -0.2428676    -4.2321400    -0.5572526
C           1.7512630    -3.6374678    -1.1383491
H           1.9467294    -4.5282013    -1.7282918
C           2.7236646    -2.6523827    -1.0140219
H           3.6816843    -2.7593678    -1.5129291
C           5.7692944     1.2227598    -0.0462476
H           6.6128691     1.9061212    -0.0614785
C           5.3535536     0.5801317    -1.2140616
H           5.8794048     0.7539042    -2.1522118
N           4.3198527    -0.2628219    -1.2766183
C           3.6319589    -0.5189961    -0.1450312
C           4.0032023     0.0559492     1.0851803
H           3.4808741    -0.2208815     1.9965676
C           5.0779671     0.9417822     1.1300986
H           5.3778421     1.3913132     2.0731907
26
426_C12H12N2_0-1-2-3 (135,) energy =    -574.0002282
C           2.5247832    -1.4750223    -0.2820514
C           1.2563791    -1.2680895     0.3253622
N           0.9363317    -0.0796689     1.0068437
C          -0.3649065     0.5411811     0.7503221
H          -0.6093046     0.6055005    -0.3210909
H          -0.3516078     1.5499657     1.1725374
H          -1.1681050    -0.0082120     1.2512693
H           1.6713662     0.6084456     0.8955990
C           0.2737093    -2.2650584     0.1815498
H          -0.6972623    -2.1193619     0.6437381
C           0.5224079    -3.4290261    -0.5376421
H          -0.2581322    -4.1811678    -0.6205406
C           1.7593896    -3.6258434    -1.1543099
H           1.9572629    -4.5274146    -1.7264980
C           2.7400594    -2.6493866    -1.0204176
H           3.7082449    -2.7735342    -1.4947242
C           5.8325559     1.1780502    -0.0316752
H           6.6930411     1.8401718    -0.0353093
C           5.4649379     0.4826614    -1.1854055
H           6.0452953     0.5938376    -2.1007361
N           4.4154743    -0.3386333    -1.2610287
C           3.6588630    -0.5192358    -0.1581360
C           3.9749025     0.1166449     1.0579399
H           3.3911206    -0.0910838     1.9495789
C           5.0687704     0.9779013     1.1159315
H           5.3264740     1.4719835     2.0492179
26
426_C12H12N2_0-1-2-3 (150,) energy =    -574.0022440
C           2.5309897    -1.4649142    -0.3016402
C           1.2435447    -1.2291961     0.2568762
N           0.9399529    -0.0300264     0.9148952
C          -0.4267237     0.4795156     0.8955333
H          -0.8831231     0.4575960    -0.1064363
H          -0.4134374     1.5118988     1.2551750
H          -1.0678976    -0.0934773     1.5741464
H           1.6108130     0.6972429     0.7004250
C           0.2541796    -2.2186908     0.1055242
H          -0.7326731    -2.0543925     0.5244945
C           0.5162046    -3.4037639    -0.5754707
H          -0.2704387    -4.1486511    -0.6663168
C           1.7686627    -3.6279939    -1.1474791
H           1.9757000    -4.5451020    -1.6909190
C           2.7543032    -2.6561528    -1.0075294
H           3.7351102    -2.8004384    -1.4487813
C           5.8660839     1.1529280    -0.0227927
H           6.7377694     1.8002543    -0.0176804
C           5.5389953     0.4089931    -1.1580628
H           6.1615787     0.4673188    -2.0503071
N           4.4800743    -0.3989269    -1.2428241
C           3.6699915    -0.5154699    -0.1691880
C           3.9392678     0.1773458     1.0271099
H           3.3051358     0.0290694     1.8951929
C           5.0455293     1.0214818     1.0953563
H           5.2680394     1.5569726     2.0148372
26
426_C12H12N2_0-1-2-3 (165,) energy =    -574.0030417
C           2.5396529    -1.4546174    -0.3310060
C           1.2318749    -1.1877049     0.1654957