17
415_C7H7NO2_4-6-12-13 (-165,) energy =    -476.1810324
O           2.7149767    -1.2743713     0.8244438
H           1.8792849    -0.7984919     1.0764391
C           5.7188416     1.5560063     0.3347074
H           6.5216241     2.2808438     0.2424987
C           4.4172834     1.9790183     0.5597861
H           4.2193748     3.0424942     0.6648078
C           3.3583511     1.0603434     0.6906516
C           3.6506266    -0.3288213     0.6439629
C           4.9683507    -0.7491162     0.3937653
H           5.1608101    -1.8160665     0.3448910
C           5.9844950     0.1816994     0.2398285
H           6.9997284    -0.1616461     0.0587966
C           1.9532567     1.4779067     0.9104078
O           1.0800101     0.6794894     1.2931080
N           1.6312188     2.7912671     0.7108127
H           0.6450210     3.0101964     0.7577197
H           2.2026039     3.3792445     0.1232550
17
415_C7H7NO2_4-6-12-13 (-150,) energy =    -476.1792256
O           2.6930618    -1.2609998     0.7538724
H           1.8964653    -0.7945508     1.1122265
C           5.7369012     1.5461798     0.3854076
H           6.5517670     2.2624567     0.3477261
C           4.4361702     1.9764922     0.6129283
H           4.2389448     3.0346468     0.7645262
C           3.3666022     1.0652744     0.6661861
C           3.6447744    -0.3233537     0.5890263
C           4.9551401    -0.7498216     0.3226017
H           5.1384347    -1.8159838     0.2354757
C           5.9845558     0.1764196     0.2202089
H           6.9972762    -0.1714521     0.0337985
C           1.9691575     1.4878774     0.9365260
O           1.1545954     0.7454463     1.5071829
N           1.6203809     2.7603617     0.5856019
H           0.6463974     3.0069018     0.6995623
H           2.1556362     3.2717873    -0.0998946
17
415_C7H7NO2_4-6-12-13 (-135,) energy =    -476.1755190
O           2.6657719    -1.2268749     0.6988977
H           1.9138933    -0.7796215     1.1522728
C           5.7537911     1.5444995     0.4356893
H           6.5796009     2.2492332     0.4387232
C           4.4548077     1.9855682     0.6671683
H           4.2634452     3.0396675     0.8519802
C           3.3760014     1.0877686     0.6568901
C           3.6375201    -0.2995954     0.5506062
C           4.9395187    -0.7360847     0.2733958
H           5.1112361    -1.8011281     0.1545243
C           5.9832054     0.1813985     0.2134498
H           6.9925582    -0.1732687     0.0217983
C           1.9856760     1.5108479     0.9860114
O           1.2592517     0.8466531     1.7366233
N           1.5807229     2.7125798     0.4873436
H           0.6281658     2.9969875     0.6712761
H           2.0784243     3.1581361    -0.2686786
17
415_C7H7NO2_4-6-12-13 (-120,) energy =    -476.1704037
O           2.6358111    -1.1828000     0.6066679
H           1.9246796    -0.7701955     1.1405435
C           5.7804082     1.5341308     0.4824256
H           6.6187754     2.2227073     0.5248232
C           4.4861230     1.9897571     0.7240026
H           4.3086274     3.0390547     0.9466837
C           3.3940719     1.1145099     0.6524807
C           3.6337138    -0.2690141     0.4961789
C           4.9258650    -0.7205728     0.2090585
H           5.0803807    -1.7827814     0.0482786
C           5.9875637     0.1806723     0.1977564
H           6.9918508    -0.1832025    -0.0027037
C           2.0092612     1.5366711     1.0327658
O           1.3841234     0.9777141     1.9381410
N           1.5224278     2.6308291     0.3860001
H           0.5885551     2.9459846     0.6116054
H           1.9766549     2.9993186    -0.4360523
17
415_C7H7NO2_4-6-12-13 (-105,) energy =    -476.1649301
O           2.5925562    -1.1134692     0.5265018
H           1.9055372    -0.7423718     1.1113323
C           5.8115894     1.5209914     0.5382287
H           6.6663212     2.1872736     0.6049420
C           4.5294143     1.9985631     0.8072127
H           4.3786196     3.0422797     1.0715483
C           3.4182215     1.1545519     0.6996914
C           3.6221037    -0.2203632     0.4709197
C           4.8998812    -0.6951153     0.1640435
H           5.0258322    -1.7521159    -0.0479831
C           5.9855363     0.1781101     0.1920152
H           6.9797453    -0.2009793    -0.0290746
C           2.0388672     1.5945857     1.1091682
O           1.5110157     1.2037839     2.1488448
N           1.4536223     2.5100009     0.2895813
H           0.5286797     2.8483765     0.5191801
H           1.8630812     2.7612636    -0.5975503
17
415_C7H7NO2_4-6-12-13 (-90,) energy =    -476.1608382
O           2.5587744    -1.0301202     0.4426070
H           1.8463804    -0.6797136     1.0033270
C           5.8586334     1.5064873     0.5879767
H           6.7315940     2.1484027     0.6578882
C           4.5979070     2.0033333     0.9154941
H           4.4825367     3.0361255     1.2342766
C           3.4631221     1.1917476     0.8121299
C           3.6162927    -0.1621991     0.4696413
C           4.8752113    -0.6592075     0.1211913
H           4.9628024    -1.7036936    -0.1608054
C           5.9876845     0.1773073     0.1756739
H           6.9653093    -0.2181274    -0.0865098
C           2.0989950     1.6910504     1.2286923
O           1.6626371     1.5605754     2.3663157
N           1.3993161     2.3140938     0.2378037
H           0.4927740     2.7082948     0.4514569
H           1.7822357     2.4320114    -0.6880055
17
415_C7H7NO2_4-6-12-13 (-75,) energy =    -476.1620646
O           2.4945251    -0.8955808     0.3620018
H           1.6874869    -0.3575012     0.4512604
C           5.8977992     1.4955938     0.6293647
H           6.7894043     2.1139894     0.6660089
C           4.6633397     2.0241677     0.9988585
H           4.5875438     3.0524769     1.3425237
C           3.5072860     1.2354396     0.9685137
C           3.5863862    -0.0882799     0.4946208
C           4.8303991    -0.6268422     0.1467799
H           4.8710585    -1.6573624    -0.1916783
C           5.9751436     0.1618870     0.2165216
H           6.9337761    -0.2653109    -0.0654773
C           2.1711649     1.8137663     1.3562067
O           1.8305555     2.0450961     2.5028162
N           1.2722461     1.8853620     0.2992650
H           0.3982875     2.3578121     0.5048775
H           1.6369025     2.0200755    -0.6360291
17
415_C7H7NO2_4-6-12-13 (-60,) energy =    -476.1655978
O           2.4886069    -0.8456265     0.2614053
H           1.6862547    -0.3098353     0.4125574
C           5.9255638     1.4789128     0.6781084
H           6.8285631     2.0765559     0.7558316
C           4.6944133     2.0174329     1.0374397
H           4.6252980     3.0329081     1.4176315
C           3.5199923     1.2578141     0.9460785
C           3.5846901    -0.0559981     0.4363659
C           4.8286533    -0.6060784     0.1022195
H           4.8581245    -1.6281575    -0.2619213
C           5.9850465     0.1580030     0.2202847
H           6.9413443    -0.2790688    -0.0545601
C           2.2077314     1.8819965     1.3191091
O           1.9526456     2.3327222     2.4217295
N           1.2189216     1.7498532     0.3403816
H           0.3608713     2.2495400     0.5515637
H           1.5117584     1.8027697    -0.6293756
17
415_C7H7NO2_4-6-12-13 (-45,) energy =    -476.1686538
O           2.4892543    -0.8157991     0.1729039
H           1.6871422    -0.3085656     0.4102032
C           5.9376124     1.4634986     0.7348098
H           6.8469727     2.0426757     0.8618889
C           4.7048734     2.0096600     1.0692997
H           4.6316381     3.0133683     1.4777170
C           3.5187770     1.2775947     0.9049471
C           3.5824022    -0.0322616     0.3800817
C           4.8296946    -0.5887229     0.0660436
H           4.8574260    -1.6043415    -0.3157971
C           5.9911874     0.1559408     0.2365219
H           6.9491016    -0.2874028    -0.0223612
C           2.2260096     1.9359049     1.2637841
O           2.0507663     2.5811900     2.2826154
N           1.1625381     1.6494951     0.3933423
H           0.3243020     2.1803903     0.6105052
H           1.3827408     1.6252206    -0.5979303
17
415_C7H7NO2_4-6-12-13 (-30,) energy =    -476.1702923
O           2.4913298    -0.7747592     0.0937426
H           1.6965878    -0.3103702     0.4273884
C           5.9510945     1.4477988     0.7911901
H           6.8660435     2.0040402     0.9700748
C           4.7186945     2.0056581     1.1005563
H           4.6451441     2.9976475     1.5354223
C           3.5220452     1.3090014     0.8609835
C           3.5843627     0.0011778     0.3273957
C           4.8317175    -0.5642769     0.0280799
H           4.8544423    -1.5730767    -0.3716569
C           5.9987603     0.1562820     0.2500959
H           6.9568100    -0.2954701     0.0065617
C           2.2448553     1.9901905     1.2182021
O           2.1409707     2.7993315     2.1245734
N           1.1171917     1.5838170     0.4784135
H           0.2997519     2.1438100     0.7038963
H           1.2598348     1.4850878    -0.5234692
17
415_C7H7NO2_4-6-12-13 (-15,) energy =    -476.1698855
O           2.4943717    -0.7417241     0.0121123
H           1.7161274    -0.3351859     0.4452936
C           5.9596458     1.4226587     0.8408548
H           6.8766722     1.9545735     1.0747732
C           4.7275778     1.9933573     1.1228503
H           4.6526775     2.9741505     1.5812905
C           3.5256116     1.3345459     0.8068434
C           3.5885659     0.0274880     0.2691034
C           4.8351001    -0.5458049    -0.0178442
H           4.8533458    -1.5471114    -0.4361414
C           6.0057306     0.1497938     0.2561833
H           6.9639540    -0.3099280     0.0286840
C           2.2570872     2.0310785     1.1614280
O           2.2022980     2.9808923     1.9254011
N           1.0835661     1.5215297     0.5639936
H           0.2831947     2.1063452     0.7899624
H           1.1529500     1.3456000    -0.4358575
17
415_C7H7NO2_4-6-12-13 (0,) energy =    -476.1671558
O           2.4984406    -0.7045100    -0.0671861
H           1.7468751    -0.3691453     0.4620812
C           5.9642792     1.3986430     0.8936482
H           6.8800056     1.9043186     1.1842024
C           4.7322774     1.9828274     1.1452489
H           4.6569637     2.9534988     1.6242322
C           3.5303937     1.3634425     0.7532699
C           3.5953794     0.0571709     0.2126549
C           4.8409262    -0.5233760    -0.0609189
H           4.8564184    -1.5165004    -0.4983722
C           6.0128869     0.1463311     0.2666838
H           6.9712778    -0.3216277     0.0574625
C           2.2659958     2.0727751     1.1005057
O           2.2409385     3.1388154     1.6945497
N           1.0619220     1.4713252     0.6625608
H           0.2752343     2.0764776     0.8859753
H           1.0592119     1.2210585    -0.3244967
17
415_C7H7NO2_4-6-12-13 (15,) energy =    -476.1698855
O           2.7394273    -0.6410773     1.6765134
H           1.8627799    -0.2770697     1.4365729
C           5.7853996     1.3461996    -0.3611995
H           6.5880589     1.8297767    -0.9093601
C           4.5137630     1.8993560    -0.3482212
H           4.2935477     2.8180745    -0.8822571
C           3.4636713     1.3047570     0.3745342
C           3.7009837     0.0721313     1.0271019
C           4.9879426    -0.4832443     1.0150316
H           5.1428097    -1.4262406     1.5295162
C           6.0192673     0.1535193     0.3366320
H           7.0108835    -0.2914409     0.3362501
C           2.1341308     1.9745656     0.3135402
O           1.8468358     2.8249405    -0.5129749
N           1.1886315     1.5619193     1.2776324
H           0.3464567     2.1284936     1.2193168
H           1.5428235     1.5080491     2.2300575
17
415_C7H7NO2_4-6-12-13 (30,) energy =    -476.1702923
O           2.7138922    -0.6837609     1.6037801
H           1.8486887    -0.2499222     1.4561371
C           5.7908723     1.3773496    -0.3146010
H           6.6067523     1.8918129    -0.8128010
C           4.5113662     1.9144332    -0.3259920
H           4.2989479     2.8471140    -0.8393595
C           3.4453186     1.2728670     0.3271778
C           3.6808525     0.0389861     0.9760721
C           4.9719728    -0.5071179     0.9745755
H           5.1259893    -1.4598905     1.4710493
C           6.0141987     0.1608187     0.3436150
H           7.0100637    -0.2742749     0.3575601
C           2.1070048     1.9272776     0.2680131
O           1.7347212     2.6215318    -0.6628069
N           1.2440665     1.6335911     1.3418555
H           0.3861258     2.1758853     1.2918815
H           1.6676389     1.6553213     2.2659646
17
415_C7H7NO2_4-6-12-13 (45,) energy =    -476.1686538
O           2.6901371    -0.7341068     1.5340933
H           1.8444932    -0.2458766     1.4749456
C           5.7937008     1.4000397    -0.2590656
H           6.6185407     1.9436785    -0.7092071
C           4.5069360     1.9224553    -0.2928245
H           4.3021277     2.8699853    -0.7825580
C           3.4302544     1.2363950     0.2901281
C           3.6645994    -0.0005892     0.9306026
C           4.9596839    -0.5359704     0.9420269
H           5.1135345    -1.4977781     1.4208883
C           6.0108091     0.1622687     0.3587171
H           7.0107574    -0.2626051     0.3862712
C           2.0769675     1.8681693     0.2366445
O           1.6072958     2.3873287    -0.7608535
N           1.3105289     1.7083589     1.4018498
H           0.4355549     2.2231470     1.3692495
H           1.8040583     1.8013504     2.2847321
17
415_C7H7NO2_4-6-12-13 (60,) energy =    -476.1655978
O           2.6648855    -0.7744872     1.4537549
H           1.8429965    -0.2474087     1.4731152
C           5.7980009     1.4224574    -0.2035970
H           6.6304462     1.9905498    -0.6072449
C           4.5058317     1.9342338    -0.2604992
H           4.3127859     2.8968118    -0.7259982
C           3.4200805     1.2117288     0.2530790
C           3.6512149    -0.0310471     0.8793216
C           4.9487121    -0.5575867     0.9100371
H           5.0993133    -1.5279938     1.3723594
C           6.0095048     0.1664007     0.3756534
H           7.0123299    -0.2502750     0.4180815
C           2.0446971     1.8082396     0.1958018
O           1.4782286     2.1254769    -0.8349591
N           1.3777982     1.8134407     1.4239439
H           0.4861063     2.2983276     1.4064691
H           1.9334092     1.9791627     2.2562990
17
415_C7H7NO2_4-6-12-13 (75,) energy =    -476.1620646
O           2.6428518    -0.8364277     1.3624973
H           1.8340388    -0.2994494     1.4417652
C           5.7849513     1.4454301    -0.1513754
H           6.6177831     2.0393208    -0.5152450
C           4.4869017     1.9461545    -0.2157906
H           4.2976102     2.9260374    -0.6462198
C           3.4019288     1.1870068     0.2380843
C           3.6368579    -0.0702160     0.8273762
C           4.9380875    -0.5836570     0.8696994
H           5.0922598    -1.5657648     1.3054455
C           6.0010119     0.1708823     0.3815803
H           7.0079287    -0.2351631     0.4289465
C           2.0003467     1.7366350     0.1792374
O           1.3434158     1.8322543    -0.8423007
N           1.4381216     1.9520169     1.4313639
H           0.5332670     2.4108292     1.4270276
H           2.0512662     2.1934770     2.2005504
17
415_C7H7NO2_4-6-12-13 (90,) energy =    -476.1608382
O           2.6839840    -0.9808926     1.2839496
H           1.8351897    -0.6892671     0.9108557
C           5.7589801     1.4619675    -0.1021974
H           6.5640366     2.0754739    -0.4952590
C           4.4482764     1.9367699    -0.1153560
H           4.2280430     2.9248188    -0.5113987
C           3.4048868     1.1634677     0.4046785
C           3.6739889    -0.1410481     0.8516167
C           4.9889197    -0.6134268     0.8852106
H           5.1722700    -1.6170874     1.2556079
C           6.0243736     0.1909542     0.4149684
H           7.0432760    -0.1863086     0.4342157
C           1.9696966     1.6316353     0.3359705
O           1.2301891     1.3709497    -0.6057244
N           1.5695265     2.3827734     1.4014526
H           0.6326060     2.7635560     1.4082536
H           2.1978073     2.6061415     2.1584371
17
415_C7H7NO2_4-6-12-13 (105,) energy =    -476.1649301
O           2.6939950    -1.0743814     1.2047288
H           1.8623069    -0.7655878     0.7989290
C           5.7277715     1.4832286    -0.0432785
H           6.5158461     2.1215846    -0.4310804
C           4.4135197     1.9464123     0.0076946
H           4.1746498     2.9525584    -0.3278157
C           3.3945177     1.1410461     0.5289350
C           3.6802558    -0.1990208     0.8558486
C           5.0010193    -0.6547281     0.8418260
H           5.2015059    -1.6799949     1.1362824
C           6.0176208     0.1897847     0.3999374
H           7.0404250    -0.1765568     0.3733898
C           1.9478352     1.5515190     0.4785044
O           1.1532620     1.0459918    -0.3123037
N           1.6032547     2.5699644     1.3129199
H           0.6451635     2.8936615     1.3165665
H           2.2434918     2.9204754     2.0093619
17
415_C7H7NO2_4-6-12-13 (120,) energy =    -476.1704037
O           2.7139264    -1.1537296     1.1246184
H           1.8728404    -0.7971277     0.7691106
C           5.7135147     1.5036039     0.0170658
H           6.4923873     2.1673592    -0.3456757
C           4.3958532     1.9485604     0.1002085
H           4.1431246     2.9657752    -0.1887905
C           3.3855289     1.1074772     0.5855665
C           3.6850825    -0.2505821     0.8344402
C           5.0135824    -0.6859096     0.7947128
H           5.2269012    -1.7230928     1.0329522
C           6.0179073     0.1915927     0.3935922
H           7.0442236    -0.1623408     0.3427078
C           1.9422519     1.5038661     0.5666438
O           1.0957294     0.8495147    -0.0483042
N           1.6395524     2.6769322     1.1869520
H           0.6744755     2.9782643     1.1997932
H           2.3020573     3.1350637     1.7944714
17
415_C7H7NO2_4-6-12-13 (135,) energy =    -476.1755190
O           2.7173099    -1.2092905     1.0336260
H           1.8593777    -0.8078736     0.7620487
C           5.7011012     1.5199873     0.0678799
H           6.4785984     2.2050242    -0.2558921
C           4.3821372     1.9519300     0.1636925
H           4.1265297     2.9787198    -0.0858683
C           3.3675816     1.0807134     0.5898646
C           3.6738781    -0.2876659     0.7853363
C           5.0087417    -0.7094127     0.7316124
H           5.2266722    -1.7548170     0.9254526
C           6.0093561     0.1904060     0.3798859
H           7.0378678    -0.1555220     0.3180776
C           1.9335628     1.4842983     0.6209290
O           1.0361264     0.7458545     0.1947600
N           1.6647321     2.7444368     1.0642805
H           0.6945948     3.0222574     1.1255193
H           2.3491750     3.2702622     1.5865932
17
415_C7H7NO2_4-6-12-13 (150,) energy =    -476.1792251
O           2.7284768    -1.2506290     0.9781453
H           1.8544322    -0.8179737     0.8069028
C           5.6990196     1.5280485     0.1202295
H           6.4776783     2.2294058    -0.1630994
C           4.3795537     1.9494857     0.2216593
H           4.1279675     2.9844685     0.0046998
C           3.3560331     1.0570562     0.5864642
C           3.6703431    -0.3162983     0.7498468
C           5.0099764    -0.7294279     0.6822231
H           5.2302049    -1.7799552     0.8427913
C           6.0086724     0.1846770     0.3737522
H           7.0388165    -0.1551177     0.3051672
C           1.9318749     1.4674370     0.6758610
O           1.0025851     0.6748990     0.4555158
N           1.6738140     2.7791300     0.9536582
H           0.7039914     3.0294120     1.0925480
H           2.3732268     3.3601322     1.3909532
17
415_C7H7NO2_4-6-12-13 (165,) energy =    -476.1810325
O           2.7295540    -1.2726307     0.9059314
H           1.8479766    -0.8169468     0.8462885
C           5.6960187     1.5443062     0.1724693
H           6.4783997     2.2611201    -0.0564468
C           4.3766177     1.9589690     0.2773282
H           4.1375324     3.0049519     0.1043380
C           3.3411405     1.0496139     0.5659281
C           3.6603205    -0.3282688     0.6961880
C           5.0022773    -0.7374465     0.6102387
H           5.2201712    -1.7936494     0.7317389
C           6.0030490     0.1875045     0.3542594
H           7.0339680    -0.1485853     0.2792995
C           1.9241141     1.4613429     0.7060071
O           0.9928065     0.6374134     0.6876870
N           1.6482218     2.7944814     0.8279129
H           0.6853457     3.0226463     1.0364487
H           2.3521897     3.4404916     1.1511942
17
415_C7H7NO2_4-6-12-13 (180,) energy =    -476.1810157
O           2.7300097    -1.2848682     0.8643250
H           1.8631677    -0.8079729     0.9841365
C           5.7125486     1.5445515     0.2679446
H           6.5053262     2.2702666     0.1159615
C           4.4067518     1.9669990     0.4624479
H           4.2089196     3.0355702     0.4754465
C           3.3548066     1.0525672     0.6680563
C           3.6586031    -0.3366875     0.6750635
C           4.9860104    -0.7572792     0.4760121
H           5.1855895    -1.8239679     0.4864946
C           5.9951679     0.1701285     0.2746272
H           7.0150655    -0.1735245     0.1229006
C           1.9414165     1.4640165     0.8476358
O           1.0323819     0.6319576     1.0277787
N           1.6314438     2.7925241     0.8304265
H           0.6449568     3.0124986     0.8336474
H           2.2594261     3.4856128     0.4559450
