15
255_C5H6N2OS_4-0-2-11 (-165,) energy =    -777.0671372
N           1.0991274    -0.7424951    -0.2053791
H           1.0793972     0.1022699     0.3535336
C           2.3340124    -1.1816667    -0.5691438
O           2.5717684    -2.2283893    -1.1651651
C          -0.0639265    -1.6111334    -0.2219072
H          -0.3119455    -1.9696364     0.7855917
H           0.1686219    -2.4682141    -0.8554892
H          -0.9315002    -1.0848784    -0.6334020
C           4.5023425     1.4342482     0.7624961
H           4.5415067     2.3593077     1.3262875
N           3.2897449     0.8341469     0.5384555
C           3.4386706    -0.2651571    -0.1529918
S           5.0863533    -0.6534248    -0.5833178
C           5.5871050     0.7839580     0.2367174
H           6.6286660     1.0695570     0.2924293
15
255_C5H6N2OS_4-0-2-11 (-150,) energy =    -777.0646218
N           1.0661063    -0.6914502    -0.3745605
H           1.0747444     0.1627104     0.1735767
C           2.3154590    -1.1613825    -0.6695722
O           2.5588678    -2.2316254    -1.2171152
C          -0.0364489    -1.6139754    -0.1415553
H          -0.0857482    -1.9283176     0.9097096
H           0.1190067    -2.4943712    -0.7666826
H          -0.9852295    -1.1441083    -0.4170275
C           4.4787534     1.3973113     0.7752094
H           4.5120455     2.3161573     1.3493886
N           3.2651333     0.8264137     0.4906210
C           3.4208389    -0.2711184    -0.2027188
S           5.0782912    -0.6926666    -0.5596282
C           5.5722918     0.7261742     0.2952686
H           6.6164160     0.9856690     0.4051913
15
255_C5H6N2OS_4-0-2-11 (-135,) energy =    -777.0601857
N           1.0473669    -0.7086164    -0.5484948
H           1.0580168     0.1714817    -0.0400079
C           2.3187251    -1.1642553    -0.8064898
O           2.5846481    -2.2328915    -1.3431990
C           0.0322446    -1.6493653    -0.0772095
H           0.1329309    -1.8488819     0.9983586
H           0.1478213    -2.5863314    -0.6242801
H          -0.9658514    -1.2477292    -0.2734876
C           4.4239717     1.3455666     0.7993766
H           4.4349470     2.2536975     1.3911903
N           3.2231717     0.7945780     0.4349176
C           3.4060792    -0.2943578    -0.2660848
S           5.0775301    -0.7288023    -0.5352948
C           5.5359773     0.6686322     0.3719060
H           6.5746568     0.9118280     0.5500039
15
255_C5H6N2OS_4-0-2-11 (-120,) energy =    -777.0542308
N           1.0087667    -0.7162788    -0.6982404
H           1.0328482     0.1993622    -0.2537664
C           2.2994164    -1.1598862    -0.9363832
O           2.5760111    -2.2194473    -1.4812025
C           0.0966616    -1.6188650     0.0145424
H           0.3476647    -1.6953329     1.0815234
H           0.1578248    -2.6103280    -0.4379419
H          -0.9286694    -1.2527608    -0.0859635
C           4.3674523     1.2788632     0.8183504
H           4.3644338     2.1700395     1.4354883
N           3.1769887     0.7539142     0.3893290
C           3.3755165    -0.3193528    -0.3323197
S           5.0529501    -0.7663195    -0.5449399
C           5.4887551     0.5994848     0.4186570
H           6.5216599     0.8239976     0.6479525
15
255_C5H6N2OS_4-0-2-11 (-105,) energy =    -777.0475716
N           0.9769687    -0.7165598    -0.8407410
H           1.0025218     0.2350802    -0.4752504
C           2.2934379    -1.1313063    -1.0661181
O           2.5910386    -2.1634074    -1.6456344
C           0.1955767    -1.5500640     0.0899365
H           0.5849268    -1.5049921     1.1168456
H           0.2173182    -2.5860110    -0.2552787
H          -0.8423205    -1.2067268     0.0864878
C           4.2917449     1.2391465     0.8524816
H           4.2644282     2.1105544     1.4966708
N           3.1205163     0.7331956     0.3552780
C           3.3472007    -0.3181645    -0.3911014
S           5.0328547    -0.7635504    -0.5446005
C           5.4281527     0.5676495     0.4815032
H           6.4502773     0.7807518     0.7641093
15
255_C5H6N2OS_4-0-2-11 (-90,) energy =    -777.0414391
N           1.0480676    -0.5516789    -0.8314901
H           0.5665812    -0.7865728    -1.7017896
C           2.3652351    -1.0153562    -1.0439691
O           2.6654875    -1.7827564    -1.9468585
C           0.2973416    -1.2087129     0.2599959
H          -0.7046175    -0.7738642     0.3025274
H           0.7945629    -1.0066417     1.2122435
H           0.2128165    -2.2954620     0.1209087
C           4.4485559     0.9899307     1.1735765
H           4.4619182     1.7238692     1.9714946
N           3.2480745     0.5528404     0.6858649
C           3.4266949    -0.3153779    -0.2754771
S           5.1068470    -0.6737883    -0.6430404
C           5.5632154     0.4489223     0.5836205
H           6.6016317     0.6625891     0.7982403
15
255_C5H6N2OS_4-0-2-11 (-75,) energy =    -777.0478894
N           1.0501544    -0.6476912    -0.9137225
H           0.5400207    -0.9807380    -1.7323364
C           2.3768503    -1.0255402    -1.1380718
O           2.7194105    -1.7056713    -2.0970309
C           0.3632812    -1.1233084     0.3019533
H          -0.6391810    -0.6879391     0.3275094
H           0.9083065    -0.7762071     1.1815424
H           0.2781270    -2.2181471     0.3330658
C           4.3836394     0.9108164     1.2177299
H           4.3705280     1.5919614     2.0611154
N           3.1990421     0.4581783     0.7028987
C           3.4081216    -0.3393807    -0.3115257
S           5.0981909    -0.6072515    -0.7024289
C           5.5154770     0.4510708     0.5944754
H           6.5457482     0.6875312     0.8235284
15
255_C5H6N2OS_4-0-2-11 (-60,) energy =    -777.0529867
N           1.0465303    -0.7541590    -0.9564969
H           0.5207167    -1.1536715    -1.7318271
C           2.3831715    -1.0208110    -1.2012079
O           2.7618309    -1.6176544    -2.2039339
C           0.4022827    -1.0567201     0.3309488
H          -0.6157676    -0.6585525     0.3098487
H           0.9503420    -0.5632763     1.1333030
H           0.3560454    -2.1366596     0.5274852
C           4.3494810     0.8416934     1.2582445
H           4.3251248     1.4743648     2.1382762
N           3.1721460     0.3822728     0.7311853
C           3.3911574    -0.3534732    -0.3266550
S           5.0833424    -0.5472657    -0.7499856
C           5.4858743     0.4485146     0.6000778
H           6.5118663     0.6976046     0.8347199
15
255_C5H6N2OS_4-0-2-11 (-45,) energy =    -777.0562473
N           1.0493958    -0.8672198    -0.9824208
H           0.5307393    -1.3198819    -1.7304605
C           2.3913384    -1.0083576    -1.2485184
O           2.7970754    -1.5291110    -2.2850409
C           0.4193493    -1.0059822     0.3340054
H          -0.6051467    -0.6287817     0.2690361
H           0.9671734    -0.4105968     1.0623572
H           0.3882234    -2.0526511     0.6670551
C           4.3350072     0.7840838     1.2907936
H           4.3078460     1.3674112     2.2041666
N           3.1614060     0.3195653     0.7587015
C           3.3806141    -0.3553897    -0.3388383
S           5.0699756    -0.4742562    -0.8009927
C           5.4692855     0.4581803     0.5942925
H           6.4923867     0.7200741     0.8276303
15
255_C5H6N2OS_4-0-2-11 (-30,) energy =    -777.0579812
N           1.2458516    -0.9437257    -0.9001706
H           0.7460497    -1.4343482    -1.6346902
C           2.5852357    -0.9479367    -1.1780805
O           3.0236757    -1.4032457    -2.2339391
C           0.5870038    -0.9249437     0.4042983
H          -0.4459585    -0.5924188     0.2663080
H           1.1012459    -0.2288153     1.0635450
H           0.5751728    -1.9194682     0.8716670
C           4.4680137     0.8152282     1.4342900
H           4.4270249     1.3482721     2.3773913
N           3.3098230     0.3214037     0.8938956
C           3.5432883    -0.2863312    -0.2394705
S           5.2292267    -0.2972054    -0.7297639
C           5.6049563     0.5805154     0.7068678
H           6.6182136     0.8770105     0.9417791
15
255_C5H6N2OS_4-0-2-11 (-15,) energy =    -777.0586888
N           1.2243333    -1.0007068    -0.9086086
H           0.6926061    -1.4799543    -1.6247422
C           2.5441454    -0.9348460    -1.2448254
O           2.9583797    -1.3369027    -2.3322098
C           0.5815009    -0.8153523     0.3892438
H          -0.4910784    -0.9703858     0.2485539
H           0.7514251     0.1913996     0.7718298
H           0.9449403    -1.5285071     1.1382273
C           4.4425758     0.6767776     1.4439708
H           4.4095196     1.1300215     2.4282802
N           3.2847371     0.1945563     0.8912653
C           3.5100309    -0.3120179    -0.2920287
S           5.1828859    -0.2358097    -0.8190183
C           5.5682635     0.5341511     0.6762678
H           6.5785925     0.8389828     0.9132795
15
255_C5H6N2OS_4-0-2-11 (0,) energy =    -777.0589822
N           1.2172259    -1.1011704    -0.8847947
H           0.6613683    -1.5228548    -1.6174928
C           2.5147506    -0.9451531    -1.2661920
O           2.9130831    -1.2919355    -2.3786200
C           0.5519896    -0.7615412     0.3683879
H          -0.4963472    -1.0541001     0.2705425
H           0.6039435     0.3101989     0.5781601
H           0.9913411    -1.2914032     1.2176330
C           4.4329847     0.5883573     1.4537101
H           4.4143412     0.9844453     2.4627736
N           3.2764007     0.0973371     0.9054414
C           3.4850587    -0.3358218    -0.3096679
S           5.1378084    -0.1699409    -0.8770573
C           5.5394431     0.5303974     0.6481334
H           6.5450845     0.8581104     0.8742872
15
255_C5H6N2OS_4-0-2-11 (15,) energy =    -777.0586888
N           1.2659488    -1.1795892    -0.8374573
H           0.7075526    -1.5461008    -1.5984256
C           2.5414044    -0.9269843    -1.2481123
O           2.9288264    -1.2163695    -2.3802822
C           0.5539328    -0.7016327     0.3443336
H          -0.4585464    -1.1109334     0.3043751
H           0.4905115     0.3922430     0.3764874
H           1.0410981    -1.0382377     1.2598640
C           4.4770239     0.5286432     1.5024413
H           4.4716646     0.8654172     2.5329475
N           3.3237789     0.0269389     0.9575076
C           3.5134886    -0.3300782    -0.2851088
S           5.1426171    -0.0696936    -0.8851901
C           5.5615891     0.5592665     0.6659794
H           6.5606453     0.9116633     0.8840785
15
255_C5H6N2OS_4-0-2-11 (30,) energy =    -777.0579812
N           1.3064816    -1.2024654    -0.7974364
H           0.7751660    -1.5601786    -1.5846938
C           2.5633318    -0.8584851    -1.2136061
O           2.9469743    -1.0828482    -2.3611499
C           0.5138150    -0.6187720     0.2828679
H          -0.2723168    -1.3278266     0.5583008
H           0.0422853     0.3266296    -0.0196617
H           1.1501735    -0.4378244     1.1465553
C           4.5556776     0.4429212     1.5819078
H           4.5805065     0.6983699     2.6351814
N           3.3955409    -0.0428168     1.0383701
C           3.5456846    -0.2991684    -0.2344629
S           5.1473340     0.0455309    -0.8659696
C           5.6084614     0.5631932     0.7135441
H           6.6073421     0.9204007     0.9243127
15
255_C5H6N2OS_4-0-2-11 (45,) energy =    -777.0562473
N           1.3166477    -1.7443213     0.4679767
H           0.9527981    -2.6913494     0.5329568
C           2.6355686    -1.8199929     0.0855386
O           3.2139888    -2.8965175    -0.0437321
C           0.3366808    -0.7734297    -0.0282336
H           0.0372701    -0.9838073    -1.0643325
H           0.7579337     0.2286706     0.0303519
H          -0.5508794    -0.8207598     0.6090187
C           4.0876605     1.5456821     0.0355773
H           3.9119708     2.6075096     0.1656333
N           3.0427803     0.6720605     0.1813568
C           3.4349527    -0.5608268    -0.0041158
S           5.1401433    -0.7385045    -0.3814913
C           5.2960796     0.9757786    -0.2691295
H           6.2455350     1.4702128    -0.4235323
15
255_C5H6N2OS_4-0-2-11 (60,) energy =    -777.0529867
N           1.3261690    -1.6690008     0.5557254
H           0.9720901    -2.6157799     0.6800819
C           2.6127778    -1.7862288     0.0572395
O           3.1433286    -2.8738366    -0.1444800
C           0.3126911    -0.8028193    -0.0661305
H           0.0306437    -1.1496071    -1.0697346
H           0.6964971     0.2153415    -0.1267111
H          -0.5771965    -0.8012299     0.5690913
C           4.1201081     1.5470640     0.0950120
H           3.9646541     2.6037567     0.2809088
N           3.0711916     0.6795856     0.2441322
C           3.4419306    -0.5476254    -0.0104751
S           5.1263755    -0.7265592    -0.4696872
C           5.3085471     0.9789623    -0.2845036
H           6.2581981     1.4689567    -0.4513272
15
255_C5H6N2OS_4-0-2-11 (75,) energy =    -777.0478894
N           1.3360988    -1.5811468     0.6288968
H           1.0199827    -2.5314658     0.8244696
C           2.5887355    -1.7348449     0.0284912
O           3.0588959    -2.8297968    -0.2535762
C           0.2723681    -0.8657245    -0.1008256
H          -0.0038657    -1.3692101    -1.0373546
H           0.6072594     0.1497887    -0.3194333
H          -0.6091615    -0.8035645     0.5427355
C           4.1752896     1.5501470     0.1623426
H           4.0486848     2.5998015     0.4023958
N           3.1173643     0.6952236     0.3143362
C           3.4563181    -0.5251361    -0.0092270
S           5.1172973    -0.7112539    -0.5453343
C           5.3384851     0.9802332    -0.2882727
H           6.2914873     1.4602120    -0.4650379
15
255_C5H6N2OS_4-0-2-11 (90,) energy =    -777.0414391
N           1.3280152    -1.4649630     0.6782177
H           1.0700242    -2.4090523     0.9724278
C           2.5537221    -1.6504109     0.0011760
O           2.9536429    -2.7449031    -0.3681531
C           0.2067580    -0.9533184    -0.1388720
H          -0.0208589    -1.6003181    -0.9974153
H           0.4516458     0.0488867    -0.5000518
H          -0.6790780    -0.8767361     0.4969386
C           4.2624149     1.5599981     0.2312024
H           4.1824162     2.5995472     0.5286168
N           3.1846109     0.7333665     0.3895989
C           3.4680188    -0.4794302    -0.0087680
S           5.0976568    -0.6896813    -0.6304990
C           5.3863773     0.9776458    -0.2986784
H           6.3472389     1.4355908    -0.4911782
15
255_C5H6N2OS_4-0-2-11 (105,) energy =    -777.0475718
N           1.2473215    -1.5649282     0.5486458
H           1.3311640    -0.7957310     1.2128396
C           2.4851178    -1.7335375    -0.0800780
O           2.7526008    -2.6714692    -0.8138369
C           0.1101949    -1.2836891    -0.3454823
H          -0.8129478    -1.3007030     0.2398436
H           0.0516849    -2.0666539    -1.1046723
H           0.2021163    -0.3074376    -0.8421021
C           4.2467058     1.3814238     0.6183046
H           4.1896812     2.3453436     1.1109222
N           3.1901122     0.5154351     0.7115942
C           3.4330673    -0.5883138     0.0509340
S           4.9953222    -0.6472739    -0.7359822
C           5.3115337     0.9348758    -0.1210858
H           6.2369348     1.4518315    -0.3365547
15
255_C5H6N2OS_4-0-2-11 (120,) energy =    -777.0542308
N           1.2382044    -1.4359313     0.4806610
H           1.2928713    -0.6155317     1.0810693
C           2.4502610    -1.6337530    -0.1604669
O           2.6834711    -2.5582254    -0.9266064
C           0.0260323    -1.3979245    -0.3462815
H          -0.8545818    -1.4848711     0.2958982
H           0.0412947    -2.2467771    -1.0323558
H          -0.0437896    -0.4680730    -0.9274870
C           4.3343246     1.3832611     0.6466739
H           4.3117063     2.3371036     1.1612039
N           3.2377302     0.5638353     0.7001939
C           3.4436386    -0.5333600     0.0176404
S           5.0141015    -0.6455774    -0.7438110
C           5.3908942     0.9058691    -0.0843341
H           6.3428265     1.3842139    -0.2710964
15
255_C5H6N2OS_4-0-2-11 (135,) energy =    -777.0601818
N           1.2329485    -1.2721181     0.4491016
H           1.2619694    -0.4089284     0.9854277
C           2.4287326    -1.5075012    -0.1886511
O           2.6425236    -2.4384390    -0.9556563
C          -0.0174428    -1.4779943    -0.2798840
H          -0.8365909    -1.6481814     0.4245988
H           0.0930818    -2.3617346    -0.9102050
H          -0.2632636    -0.6146617    -0.9129484
C           4.4140330     1.4199374     0.7045995
H           4.4175382     2.3680352     1.2301012
N           3.2817388     0.6478676     0.7177629
C           3.4605997    -0.4497982     0.0294211
S           5.0439397    -0.6217102    -0.6904263
C           5.4691160     0.9051910    -0.0020381
H           6.4464015     1.3424098    -0.1552480
15
255_C5H6N2OS_4-0-2-11 (150,) energy =    -777.0646218
N           1.2070606    -1.1343046     0.3507757
H           1.2077971    -0.2556388     0.8587856
C           2.3914795    -1.4008066    -0.2776692
O           2.5925320    -2.3384374    -1.0424547
C          -0.0559783    -1.5533909    -0.2408810
H          -0.7989810    -1.7285861     0.5427529
H           0.1149105    -2.4843060    -0.7833261
H          -0.4449843    -0.8006891    -0.9398241
C           4.4717838     1.4201104     0.7368981
H           4.5001031     2.3554990     1.2839924
N           3.3056824     0.7000862     0.6971426
C           3.4587235    -0.3907415    -0.0072736
S           5.0539859    -0.6185658    -0.6821500
C           5.5253219     0.8731204     0.0531925
H           6.5265994     1.2667223    -0.0569975
15
255_C5H6N2OS_4-0-2-11 (165,) energy =    -777.0671372
N           1.1831224    -1.0064952     0.2267219
H           1.1526917    -0.1277822     0.7300458
C           2.3779211    -1.3203635    -0.3425602
O           2.5908047    -2.2896461    -1.0654491
C          -0.0593744    -1.6261936    -0.1971653
H          -0.6780519    -1.8803065     0.6697931
H           0.1909418    -2.5396241    -0.7385334
H          -0.6325061    -0.9648759    -0.8599448
C           4.5035298     1.4307274     0.7671364
H           4.5411371     2.3613758     1.3217621
N           3.3167304     0.7495941     0.6761449
C           3.4629455    -0.3419930    -0.0279952
S           5.0752386    -0.6198505    -0.6396241
C           5.5652935     0.8518840     0.1240017
H           6.5836442     1.2102352     0.0602437
15
255_C5H6N2OS_4-0-2-11 (180,) energy =    -777.0678894
N           1.1183837    -0.8206482     0.0174430
H           1.0971562     0.0395462     0.5507189
C           2.3287286    -1.2131287    -0.4553727
O           2.5440095    -2.2241797    -1.1188163
C          -0.0975440    -1.5748480    -0.2145428
H          -0.5480174    -1.8982303     0.7313664
H           0.1665784    -2.4545311    -0.8033246
H          -0.8320730    -0.9791663    -0.7694669
C           4.5176104     1.4419314     0.7613699
H           4.5704459     2.3683183     1.3218777
N           3.3065581     0.8167320     0.6076542
C           3.4378336    -0.2792610    -0.0923813
S           5.0646052    -0.6322183    -0.6206312
C           5.5827965     0.8146914     0.1717039
H           6.6191467     1.1235627     0.1638759
