30
385_C14H15N_0-6-25-26 (-165,) energy =    -597.2764206
C           0.4580544     0.2109264    -0.3349791
H           0.6032883     0.5846343     0.6927186
C          -0.5846584     1.1122937    -1.0176593
H          -1.5418991     1.0553289    -0.4923199
H          -0.7484643     0.7911164    -2.0528035
H          -0.2557912     2.1590203    -1.0198652
N           1.7097978     0.3080158    -1.0779569
H           1.7370995     1.0764611    -1.7351273
C          -1.1598407    -3.8064357    -0.0716677
H          -1.5784205    -4.8073488    -0.0077252
C          -1.3907019    -2.8816999     0.9484423
H          -1.9893931    -3.1596884     1.8120808
C          -0.8451972    -1.6000022     0.8651354
H          -1.0227309    -0.8849058     1.6668261
C          -0.0668385    -1.2217814    -0.2360012
C           0.1626072    -2.1561832    -1.2515733
H           0.7830500    -1.8723934    -2.0963324
C          -0.3799424    -3.4394338    -1.1700124
H          -0.1883892    -4.1562859    -1.9644825
C           5.5079417    -0.5881720     0.5303261
H           6.4898258    -0.8193187     0.9327248
C           4.3532294    -1.0098278     1.1880712
H           4.4309962    -1.5773960     2.1122450
C           3.0854845    -0.7185355     0.6818765
H           2.2055574    -1.0761785     1.2044205
C           2.9518182     0.0125792    -0.5120771
C           4.1224061     0.4290146    -1.1770634
H           4.0345197     0.9886459    -2.1067339
C           5.3787428     0.1342087    -0.6597361
H           6.2645529     0.4722415    -1.1919778
30
385_C14H15N_0-6-25-26 (-150,) energy =    -597.2762575
C           0.5077661     0.1391774    -0.3782733
H           0.7059996     0.5149726     0.6388282
C          -0.5097432     1.0820341    -1.0424489
H          -1.4560980     1.0718404    -0.4945914
H          -0.7132234     0.7612195    -2.0707643
H          -0.1346905     2.1129358    -1.0611723
N           1.7472463     0.1643094    -1.1592779
H           1.7714860     0.9312778    -1.8203074
C          -1.2948424    -3.7916571    -0.0249241
H          -1.7594970    -4.7702866     0.0617161
C          -1.4523908    -2.8470911     0.9909785
H          -2.0392852    -3.0870574     1.8739146
C          -0.8484797    -1.5941110     0.8785491
H          -0.9694373    -0.8639578     1.6771081
C          -0.0833353    -1.2645297    -0.2474309
C           0.0733153    -2.2194126    -1.2580897
H           0.6855354    -1.9742707    -2.1207788
C          -0.5283820    -3.4738283    -1.1478793
H          -0.3934893    -4.2069462    -1.9391642
C           5.5419392    -0.4709696     0.5837698
H           6.5217412    -0.6337895     1.0231151
C           4.4094655    -1.0771213     1.1276168
H           4.5036898    -1.7214622     1.9983357
C           3.1460020    -0.8762966     0.5708348
H           2.2833666    -1.3749507     0.9989329
C           2.9934080    -0.0506671    -0.5572926
C           4.1385436     0.5656073    -1.0970812
H           4.0355883     1.2142807    -1.9654669
C           5.3936506     0.3511005    -0.5364887
H           6.2611484     0.8388835    -0.9742427
30
385_C14H15N_0-6-25-26 (-135,) energy =    -597.2749713
C           0.5334937     0.0838612    -0.4113629
H           0.7637862     0.4759038     0.5918635
C          -0.4616378     1.0451415    -1.0828874
H          -1.4002937     1.0790329    -0.5226154
H          -0.6900257     0.7081944    -2.1008054
H          -0.0530571     2.0623132    -1.1304946
N           1.7656928     0.0436307    -1.2149112
H           1.7896729     0.8065537    -1.8823697
C          -1.4009590    -3.7706555     0.0609430
H          -1.8988051    -4.7297128     0.1771905
C          -1.4975568    -2.8032732     1.0628926
H          -2.0696411    -3.0062032     1.9646435
C          -0.8514211    -1.5754992     0.9125700
H          -0.9244058    -0.8276690     1.7004292
C          -0.1039209    -1.2941068    -0.2379530
C          -0.0078388    -2.2722278    -1.2343672
H           0.5926343    -2.0650134    -2.1150758
C          -0.6520698    -3.5013586    -1.0864050
H          -0.5642552    -4.2527337    -1.8671600
C           5.5349028    -0.3948875     0.6491834
H           6.5058574    -0.5081412     1.1226338
C           4.4537982    -1.1814732     1.0503403
H           4.5808986    -1.9163002     1.8415357
C           3.2048586    -1.0485102     0.4446565
H           2.3808516    -1.6821480     0.7552026
C           3.0129593    -0.1090192    -0.5835375
C           4.0996866     0.6968009    -0.9676217
H           3.9607609     1.4435786    -1.7477218
C           5.3474262     0.5430653    -0.3683803
H           6.1730742     1.1737331    -0.6887109
30
385_C14H15N_0-6-25-26 (-120,) energy =    -597.2730987
C           0.5155523     0.1012280    -0.4894392
H           0.7392438     0.5557319     0.4887534
C          -0.4839136     1.0129527    -1.2209209
H          -1.4247750     1.0735345    -0.6665301
H          -0.7039961     0.6149153    -2.2181747
H          -0.0832474     2.0290884    -1.3277220
N           1.7507729     0.0167022    -1.2952780
H           1.7969549     0.8093274    -1.9281444
C          -1.4029917    -3.7255947     0.2072999
H          -1.8972608    -4.6781282     0.3792579
C          -1.4428005    -2.7274520     1.1822014
H          -1.9667337    -2.8996852     2.1189210
C          -0.8005333    -1.5081852     0.9602229
H          -0.8279931    -0.7365408     1.7275149
C          -0.1142422    -1.2660061    -0.2357463
C          -0.0759393    -2.2747711    -1.2062301
H           0.4777034    -2.0975506    -2.1235522
C          -0.7152300    -3.4954369    -0.9863694
H          -0.6725339    -4.2706201    -1.7473910
C           5.4643783    -0.4036763     0.6952340
H           6.4190841    -0.5133103     1.2017600
C           4.4550005    -1.3524444     0.8731193
H           4.6238780    -2.2097137     1.5200750
C           3.2307070    -1.2262313     0.2186040
H           2.4627147    -1.9813979     0.3462799
C           2.9888189    -0.1294625    -0.6257655
C           3.9981520     0.8354801    -0.7791819
H           3.8161833     1.7030296    -1.4113765
C           5.2287438     0.6887559    -0.1406854
H           5.9982937     1.4431379    -0.2844389
30
385_C14H15N_0-6-25-26 (-105,) energy =    -597.2713910
C           0.5225988     0.1639553    -0.6194620
H           0.7151885     0.7071336     0.3203704
C          -0.4900696     0.9795358    -1.4398868
H          -1.4398026     1.0615907    -0.9033665
H          -0.6821253     0.4935160    -2.4027934
H          -0.1166501     1.9944318    -1.6288599
N           1.7729543     0.0453172    -1.4065824
H           1.8663368     0.8827382    -1.9764093
C          -1.2747211    -3.6529921     0.3767856
H          -1.7387387    -4.6043339     0.6234491
C          -1.2376103    -2.6245888     1.3188277
H          -1.6703795    -2.7713903     2.3051107
C          -0.6342999    -1.4060591     1.0001547
H          -0.6005419    -0.6104530     1.7418888
C          -0.0648165    -1.1957112    -0.2601913
C          -0.1048724    -2.2353220    -1.1991836
H           0.3571263    -2.0830749    -2.1703877
C          -0.7040718    -3.4545018    -0.8833018
H          -0.7234673    -4.2530175    -1.6208170
C           5.3722489    -0.5156808     0.7663825
H           6.2962903    -0.6632917     1.3184503
C           4.4552328    -1.5607279     0.6315378
H           4.6666760    -2.5291617     1.0779095
C           3.2740187    -1.3838267    -0.0876345
H           2.5785020    -2.2065149    -0.2111373
C           2.9816573    -0.1431868    -0.6750672
C           3.8970541     0.9089557    -0.5166952
H           3.6733758     1.8805481    -0.9540834
C           5.0899249     0.7192485     0.1813847
H           5.7908195     1.5443885     0.2802002
30
385_C14H15N_0-6-25-26 (-90,) energy =    -597.2704193
C           1.1088994    -1.2871094     0.1034437
H           1.7954562    -2.1082716     0.3756634
C           0.6967771    -0.5814355     1.4035615
H           0.1918309    -1.2913032     2.0670566
H           0.0081334     0.2430650     1.1901611
H           1.5684572    -0.1823301     1.9311982
N           1.7748400    -0.3455028    -0.8349767
H           1.8557514    -0.8274568    -1.7287097
C          -2.3630811    -3.0368328    -1.8106235
H          -3.2375746    -3.4758075    -2.2836681
C          -1.4993304    -3.8321689    -1.0563026
H          -1.6963977    -4.8948988    -0.9408612
C          -0.3738781    -3.2660838    -0.4548712
H           0.2999779    -3.8923113     0.1263692
C          -0.0979486    -1.9003070    -0.5906053
C          -0.9710102    -1.1098583    -1.3514436
H          -0.7551134    -0.0523280    -1.4717469
C          -2.0935932    -1.6743864    -1.9578065
H          -2.7595222    -1.0487994    -2.5468721
C           5.6067979     1.1370318     0.2301355
H           6.5854281     1.5283377     0.4941470
C           5.4964395    -0.0147196    -0.5502464
H           6.3903935    -0.5269455    -0.8968840
C           4.2384495    -0.5193951    -0.8824373
H           4.1567679    -1.4245563    -1.4812716
C           3.0701606     0.1293367    -0.4552670
C           3.1908830     1.2999724     0.3078329
H           2.2894511     1.8288994     0.6008193
C           4.4485334     1.7897031     0.6587888
H           4.5239713     2.6975982     1.2517666
30
385_C14H15N_0-6-25-26 (-75,) energy =    -597.2713449
C           0.4326493    -0.3199771     0.7965790
H           0.9395499    -0.8116458     1.6340670
C          -0.7786218     0.4372297     1.3537135
H          -1.4970428    -0.2559338     1.8036240
H          -1.3020130     0.9914424     0.5651852
H          -0.4522248     1.1577496     2.1096370
N           1.4017776     0.6684022     0.2594465
H           0.9975528     1.1001302    -0.5699281
C          -0.6300248    -3.4045518    -2.0733416
H          -0.8909082    -4.1762797    -2.7925908
C           0.1220530    -3.7220931    -0.9425977
H           0.4534972    -4.7438896    -0.7766478
C           0.4551621    -2.7269785    -0.0211575
H           1.0466604    -2.9817501     0.8553392
C           0.0428029    -1.4025528    -0.2079845
C          -0.7115111    -1.0972636    -1.3508294
H          -1.0484043    -0.0767760    -1.5227666
C          -1.0455346    -2.0861043    -2.2753680
H          -1.6334952    -1.8286230    -3.1527192
C           5.3562172    -0.5996931    -0.5788099
H           6.3778950    -0.9066036    -0.7845231
C           4.4803919    -0.3150432    -1.6266275
H           4.8154434    -0.4038308    -2.6569874
C           3.1650107     0.0700391    -1.3627443
H           2.4808797     0.2686544    -2.1847226
C           2.7094086     0.1953902    -0.0428070
C           3.6043339    -0.0661353     1.0071105
H           3.2695919     0.0727264     2.0315908
C           4.9082896    -0.4764919     0.7394595
H           5.5865264    -0.6777400     1.5649378
30
385_C14H15N_0-6-25-26 (-60,) energy =    -597.2726504
C           0.4610269    -0.2743861     0.8039943
H           0.9517556    -0.7374404     1.6658916
C          -0.7442564     0.5199145     1.3218947
H          -1.4721654    -0.1461100     1.7964969
H          -1.2579321     1.0447031     0.5071838
H          -0.4144376     1.2684493     2.0486397
N           1.4390260     0.6753966     0.2267341
H           1.0365811     1.1171626    -0.5967483
C          -0.6233607    -3.4642314    -1.9394465
H          -0.8891000    -4.2622952    -2.6274841
C           0.1067560    -3.7448922    -0.7848766
H           0.4158807    -4.7643041    -0.5688662
C           0.4464456    -2.7158677     0.0961110
H           1.0201690    -2.9422918     0.9919651
C           0.0629824    -1.3938364    -0.1566478
C          -0.6696073    -1.1257230    -1.3223721
H          -0.9829856    -0.1075845    -1.5454159
C          -1.0105063    -2.1486328    -2.2062010
H          -1.5809642    -1.9198783    -3.1028172
C           5.4193935    -0.5220351    -0.5741008
H           6.4472561    -0.8114394    -0.7731488
C           4.6198918    -0.0027995    -1.5927833
H           5.0206441     0.1116873    -2.5968731
C           3.2968982     0.3579947    -1.3396713
H           2.6760492     0.7428571    -2.1463109
C           2.7491142     0.2247328    -0.0541374
C           3.5672304    -0.2783784     0.9725208
H           3.1750079    -0.3510819     1.9830497
C           4.8806304    -0.6588052     0.7079179
H           5.4945390    -1.0480654     1.5164224
30
385_C14H15N_0-6-25-26 (-45,) energy =    -597.2736572
C           0.4703916    -0.2715932     0.8612930
H           0.8899307    -0.6947510     1.7816293
C          -0.7929637     0.5097280     1.2528378
H          -1.5303593    -0.1558778     1.7113251
H          -1.2614991     0.9611281     0.3688925
H          -0.5432980     1.3081039     1.9591867
N           1.4531337     0.6863333     0.3363275
H           1.0315442     1.3109203    -0.3442303
C          -0.5650940    -3.5902988    -1.7429796
H          -0.8319481    -4.4212295    -2.3904617
C          -0.2867565    -3.8111643    -0.3939754
H          -0.3337419    -4.8168707     0.0157386
C           0.0624045    -2.7408015     0.4316612
H           0.2836538    -2.9211487     1.4820124
C           0.1354176    -1.4368994    -0.0708231
C          -0.1447970    -1.2288420    -1.4273654
H          -0.0827130    -0.2263419    -1.8447423
C          -0.4914819    -2.2939966    -2.2577585
H          -0.7013998    -2.1127242    -3.3087573
C           5.3663462    -0.4036663    -0.8378060
H           6.3784064    -0.6661973    -1.1317442
C           4.6150033     0.4918995    -1.6005821
H           5.0391327     0.9337909    -2.4988438
C           3.3129996     0.8196407    -1.2294344
H           2.7347559     1.5128255    -1.8380625
C           2.7311400     0.2678522    -0.0749183
C           3.4985139    -0.6218644     0.6974549
H           3.0828510    -1.0496066     1.6043909
C           4.7944463    -0.9561683     0.3099654
H           5.3658349    -1.6509865     0.9205930
30
385_C14H15N_0-6-25-26 (-30,) energy =    -597.2748160
C           0.4909276    -0.2773096     0.8523400
H           0.9232874    -0.6680906     1.7826193
C          -0.7811321     0.4975284     1.2335580
H          -1.5029956    -0.1644525     1.7204155
H          -1.2644871     0.9115492     0.3393733
H          -0.5378629     1.3210269     1.9131287
N           1.4479402     0.6739338     0.2917883
H           1.0158655     1.3564220    -0.3204125
C          -0.5941163    -3.6791109    -1.6214661
H          -0.8777774    -4.5302757    -2.2346202
C          -0.4854538    -3.8152394    -0.2366352
H          -0.6827794    -4.7745921     0.2348302
C          -0.1133870    -2.7208420     0.5451024
H          -0.0246017    -2.8352437     1.6242199
C           0.1513835    -1.4757176    -0.0378307
C           0.0422120    -1.3522826    -1.4276252
H           0.2629888    -0.3999094    -1.9025926
C          -0.3268673    -2.4438002    -2.2144047
H          -0.4006491    -2.3301227    -3.2928944
C           5.3876878    -0.2753019    -0.8965435
H           6.4070734    -0.5022165    -1.1944917
C           4.6921157     0.7816392    -1.4883660
H           5.1687020     1.3877001    -2.2549901
C           3.3834517     1.0684044    -1.1120171
H           2.8532603     1.8958608    -1.5807864
C           2.7321468     0.3059583    -0.1239332
C           3.4381815    -0.7547339     0.4715517
H           2.9648002    -1.3657151     1.2327377
C           4.7468103    -1.0363669     0.0817663
H           5.2692848    -1.8649437     0.5536523
30
385_C14H15N_0-6-25-26 (-15,) energy =    -597.2753860
C           0.5126011    -0.2904047     0.7967771
H           0.9790831    -0.6567304     1.7216608
C          -0.7459689     0.4967890     1.1994524
H          -1.4553724    -0.1525606     1.7201441
H          -1.2533213     0.8935068     0.3108147
H          -0.4817447     1.3328457     1.8556427
N           1.4461314     0.6360886     0.1754945
H           1.0176491     1.3647031    -0.3800330
C          -0.6780315    -3.7539380    -1.5400894
H          -0.9885001    -4.6199406    -2.1185062
C          -0.6073367    -3.8272693    -0.1477028
H          -0.8614331    -4.7520347     0.3640037
C          -0.2011337    -2.7147325     0.5896909
H          -0.1422026    -2.7800556     1.6750390
C           0.1361297    -1.5133756    -0.0463252
C           0.0657073    -1.4526669    -1.4420832
H           0.3452149    -0.5355718    -1.9535426
C          -0.3380460    -2.5633863    -2.1844999
H          -0.3811592    -2.4996747    -3.2687640
C           5.4419407    -0.2017440    -0.8855062
H           6.4753147    -0.4022781    -1.1524682
C           4.7943032     0.9444044    -1.3551324
H           5.3239602     1.6475337    -1.9933605
C           3.4705747     1.2015182    -1.0156521
H           2.9806399     2.1022090    -1.3817453
C           2.7507167     0.3140578    -0.1906364
C           3.4041255    -0.8419503     0.2745037
H           2.8743449    -1.5582901     0.8926347
C           4.7331411    -1.0856022    -0.0721732
H           5.2146361    -1.9874369     0.2981458
30
385_C14H15N_0-6-25-26 (0,) energy =    -597.2754576
C           0.5061613    -0.3075199     0.7768904
H           1.0051148    -0.6664720     1.6915014
C          -0.7311518     0.4956392     1.2124688
H          -1.4264219    -0.1423035     1.7647057
H          -1.2621967     0.8873471     0.3363738
H          -0.4424696     1.3350192     1.8558609
N           1.4052288     0.5839883     0.0693210
H           1.0726222     1.5167398    -0.1223086
C          -0.8027262    -3.7924886    -1.4567586
H          -1.1425537    -4.6640574    -2.0098660
C          -0.6705870    -3.8496055    -0.0680900
H          -0.9058399    -4.7668291     0.4657344
C          -0.2265947    -2.7302830     0.6368436
H          -0.1188086    -2.7826779     1.7191501
C           0.0870404    -1.5395965    -0.0300785
C          -0.0441275    -1.4936294    -1.4217712
H           0.2185787    -0.5804663    -1.9480751
C          -0.4860176    -2.6115803    -2.1307331
H          -0.5774065    -2.5616069    -3.2127828
C           5.4646282    -0.1033038    -0.8233428
H           6.5126621    -0.2703754    -1.0535294
C           4.8359499     1.0899043    -1.1914967
H           5.3958187     1.8633369    -1.7118064
C           3.4936582     1.3053453    -0.9009558
H           3.0170153     2.2395668    -1.1932139
C           2.7345863     0.3264283    -0.2267046
C           3.3712922    -0.8734055     0.1440028
H           2.8119948    -1.6550408     0.6459696
C           4.7181387    -1.0754867    -0.1580074
H           5.1855264    -2.0126500     0.1347297
30
385_C14H15N_0-6-25-26 (15,) energy =    -597.2763845
C           0.5287446    -0.3102143     0.6691448
H           1.0631150    -0.6341421     1.5783331
C          -0.7020431     0.4982376     1.1134246
H          -1.3756578    -0.1260503     1.7067367
H          -1.2579563     0.8591222     0.2403763
H          -0.4047262     1.3596871     1.7243991
N           1.3884954     0.5580496    -0.1265650
H           1.1524866     1.5395435    -0.0662037
C          -0.8383544    -3.8673597    -1.4053321
H          -1.1938676    -4.7568664    -1.9186538
C          -0.6531771    -3.8817757    -0.0216675
H          -0.8626247    -4.7834786     0.5481187
C          -0.1897256    -2.7394216     0.6321313
H          -0.0405953    -2.7584052     1.7105477
C           0.0911153    -1.5680023    -0.0822084
C          -0.0936218    -1.5640034    -1.4689205
H           0.1430338    -0.6637595    -2.0281025
C          -0.5549936    -2.7055683    -2.1259453
H          -0.6884897    -2.6888138    -3.2046731
C           5.5139628    -0.0871239    -0.7411601
H           6.5757347    -0.2442958    -0.9066475
C           4.9230623     1.1455975    -1.0344468
H           5.5260372     1.9596936    -1.4292616
C           3.5636433     1.3479523    -0.8250072
H           3.1144127     2.3113883    -1.0599107
C           2.7508860     0.3172386    -0.3119556
C           3.3487430    -0.9210215    -0.0162836
H           2.7484631    -1.7410049     0.3612301
C           4.7141574    -1.1108195    -0.2351110
H           5.1528967    -2.0781363    -0.0025530
30
385_C14H15N_0-6-25-26 (30,) energy =    -597.2763291
C           0.5504699    -0.3210279     0.5885069
H           1.1229066    -0.6231632     1.4807956
C          -0.6550580     0.5105951     1.0582661
H          -1.3149785    -0.0927548     1.6877665
H          -1.2375710     0.8588033     0.1973466
H          -0.3277070     1.3816863     1.6395049
N           1.3893224     0.5169321    -0.2715824
H           1.1493057     1.4988795    -0.2089019
C          -0.9318594    -3.9189156    -1.3308516
H          -1.3160072    -4.8180509    -1.8053190
C          -0.6955759    -3.8966731     0.0449419
H          -0.8934690    -4.7795548     0.6473965
C          -0.1959605    -2.7420359     0.6486784
H          -0.0073373    -2.7327876     1.7209725
C           0.0713553    -1.5944457    -0.1085674
C          -0.1636884    -1.6275787    -1.4874608
H           0.0648815    -0.7467331    -2.0799139
C          -0.6620197    -2.7814046    -2.0941922
H          -0.8348473    -2.7934485    -3.1673944
C           5.5595577    -0.0314926    -0.6520626
H           6.6317693    -0.1660831    -0.7605520
C           4.9803766     1.2281658    -0.8277469
H           5.6025072     2.0855974    -1.0724852
C           3.6076841     1.4032104    -0.6851922
H           3.1687532     2.3902286    -0.8214756
C           2.7719315     0.3162027    -0.3646314
C           3.3569532    -0.9517300    -0.1979902
H           2.7343601    -1.8114356     0.0239320
C           4.7359095    -1.1123453    -0.3376488
H           5.1660857    -2.1017562    -0.2025656
30
385_C14H15N_0-6-25-26 (45,) energy =    -597.2751603
C           0.5380234    -0.3411128     0.5377044
H           1.1273725    -0.6139768     1.4273399
C          -0.6542212     0.5138574     0.9991976
H          -1.3083664    -0.0633973     1.6586992
H          -1.2480407     0.8375979     0.1363918
H          -0.3120277     1.4015262     1.5458628
N           1.3692582     0.4613847    -0.3739161
H           1.1269014     1.4444056    -0.3157285
C          -1.0042073    -3.9920823    -1.2270029
H          -1.4036440    -4.9042269    -1.6624259
C          -0.7286845    -3.9287939     0.1401757
H          -0.9107759    -4.7924863     0.7745952
C          -0.2097561    -2.7578250     0.6942734
H           0.0098357    -2.7167147     1.7598274
C           0.0384020    -1.6345274    -0.1046464
C          -0.2354324    -1.7092756    -1.4751104
H          -0.0193822    -0.8477099    -2.0997500
C          -0.7534366    -2.8792812    -2.0323054
H          -0.9565793    -2.9234210    -3.0993709
C           5.5658235    -0.0119429    -0.5551517
H           6.6438909    -0.1295180    -0.6156747
C           4.9892771     1.2598425    -0.5709375
H           5.6181654     2.1439593    -0.6408176
C           3.6076303     1.4115637    -0.4845863
H           3.1707980     2.4089156    -0.4882943
C           2.7648269     0.2897421    -0.3897749
C           3.3483532    -0.9896356    -0.3944771
H           2.7158800    -1.8699592    -0.3514122
C           4.7339071    -1.1291862    -0.4643271
H           5.1643389    -2.1276046    -0.4600958
30
385_C14H15N_0-6-25-26 (60,) energy =    -597.2733159
C           0.4829059    -0.2940807     0.5055083
H           1.0546425    -0.5097131     1.4219572
C          -0.7330545     0.5637567     0.8936993
H          -1.3934483     0.0107707     1.5677259
H          -1.3096139     0.8337106     0.0014546
H          -0.4182905     1.4843420     1.4015667
N           1.3199782     0.4765850    -0.4373288
H           1.1113316     1.4659358    -0.3433388
C          -0.9689850    -4.0542825    -1.0955422
H          -1.3464068    -4.9938075    -1.4905467
C          -0.6499352    -3.9392093     0.2584367
H          -0.7756293    -4.7899459     0.9233078
C          -0.1587755    -2.7328328     0.7602411
H           0.0959849    -2.6514004     1.8154204
C           0.0174334    -1.6256079    -0.0782208
C          -0.3011125    -1.7517110    -1.4360038
H          -0.1405484    -0.9015119    -2.0923502
C          -0.7903716    -2.9569520    -1.9410002
H          -1.0285934    -3.0408282    -2.9983992
C           5.5201789    -0.0475613    -0.5148293
H           6.5980773    -0.1775139    -0.5503622
C           4.9667931     1.2134357    -0.2887582
H           5.6124769     2.0758819    -0.1430549
C           3.5834579     1.3769703    -0.2328706
H           3.1625571     2.3629001    -0.0423965
C           2.7213354     0.2834951    -0.4176976
C           3.2839834    -0.9793224    -0.6711621
H           2.6332398    -1.8286485    -0.8488054
C           4.6683136    -1.1386300    -0.7014474
H           5.0837578    -2.1251775    -0.8916044
30
385_C14H15N_0-6-25-26 (75,) energy =    -597.2715489
C           0.4056719    -0.1979971     0.4658670
H           0.9348105    -0.3340943     1.4233623
C          -0.8558872     0.6380816     0.7364567
H          -1.5281075     0.1077019     1.4171512
H          -1.3959178     0.8288532    -0.1975430
H          -0.5980026     1.6019377     1.1943005
N           1.2605438     0.5432206    -0.4909176
H           1.1134440     1.5381289    -0.3394450
C          -0.8169013    -4.1051720    -0.9602817
H          -1.1369396    -5.0822273    -1.3126220
C          -0.4395614    -3.9275458     0.3710862
H          -0.4614781    -4.7668395     1.0615102
C          -0.0223730    -2.6719420     0.8179628
H           0.2790594    -2.5413135     1.8554672
C           0.0204610    -1.5783456    -0.0534384
C          -0.3582551    -1.7668957    -1.3894858
H          -0.3036138    -0.9252035    -2.0739258
C          -0.7727513    -3.0201606    -1.8398251
H          -1.0592682    -3.1516805    -2.8802701
C           5.4386930    -0.1825792    -0.4908161
H           6.5099502    -0.3630610    -0.5057621
C           4.9320512     1.0136006     0.0178554
H           5.6068407     1.7727782     0.4053671
C           3.5554012     1.2384799     0.0445573
H           3.1668659     2.1686608     0.4558433
C           2.6602473     0.2796563    -0.4543233
C           3.1787464    -0.9102558    -0.9896814
H           2.4992693    -1.6438184    -1.4092018
C           4.5533783    -1.1413073    -0.9897384
H           4.9365346    -2.0708966    -1.4031563
30
385_C14H15N_0-6-25-26 (90,) energy =    -597.2700708
C           0.3802946    -0.0781475     0.4147332
H           0.8787141    -0.1440206     1.3969762
C          -0.9109267     0.7357055     0.5930964
H          -1.5882178     0.2314547     1.2887718
H          -1.4269902     0.8525487    -0.3658309
H          -0.6934219     1.7344133     0.9939782
N           1.2478581     0.6276262    -0.5601716
H           1.1554331     1.6256917    -0.3789848
C          -0.6403967    -4.1024264    -0.8306459
H          -0.9093988    -5.1094772    -1.1384531
C          -0.2264645    -3.8551618     0.4781285
H          -0.1680459    -4.6696211     1.1956397
C           0.1235770    -2.5602610     0.8680952
H           0.4534160    -2.3745960     1.8882598
C           0.0623349    -1.4970222    -0.0381999
C          -0.3524090    -1.7561332    -1.3520800
H          -0.3823265    -0.9372427    -2.0652745
C          -0.7004961    -3.0476765    -1.7457503
H          -1.0176762    -3.2330349    -2.7689921
C           5.3854256    -0.3213889    -0.4983300
H           6.4457258    -0.5590648    -0.4970596
C           4.9024334     0.7426036     0.2644219
H           5.5848342     1.3391705     0.8645949
C           3.5391326     1.0413726     0.2654603
H           3.1642469     1.8662864     0.8689254
C           2.6408789     0.2920125    -0.5081789
C           3.1370805    -0.7603628    -1.2897162
H           2.4484829    -1.3244127    -1.9094572
C           4.4962399    -1.0718598    -1.2712768
H           4.8652206    -1.8936066    -1.8797235
30
385_C14H15N_0-6-25-26 (105,) energy =    -597.2711255
C           0.3790777     0.3239120    -0.2786285
H           0.4790675     0.5230540     0.7938922
C          -0.7037612     1.2556294    -0.8357037
H          -1.6750547     1.0404114    -0.3780848
H          -0.8148458     1.1379033    -1.9204086
H          -0.4358466     2.2977854    -0.6378137
N           1.6826563     0.6989389    -0.8834040
H           1.6637288     0.4498489    -1.8709964
C          -0.5634464    -3.8931658    -0.7386723
H          -0.7941981    -4.9489311    -0.8530422
C          -0.2659382    -3.3700178     0.5194597
H          -0.2607549    -4.0175777     1.3924448
C           0.0300062    -2.0126089     0.6613327
H           0.2664549    -1.6136349     1.6451341
C           0.0310912    -1.1541670    -0.4442682
C          -0.2680873    -1.6945960    -1.7040052
H          -0.2772716    -1.0521504    -2.5823922
C          -0.5623070    -3.0495059    -1.8522010
H          -0.7946285    -3.4470029    -2.8369700
C           5.1724805    -0.8487267     0.9545430
H           6.0713604    -1.2326088     1.4289522
C           4.4408251     0.1783725     1.5571512
H           4.7732876     0.6015218     2.5017556
C           3.2968027     0.6835967     0.9431955
H           2.7471980     1.5067674     1.3919364
C           2.8526438     0.1572464    -0.2798614
C           3.5777752    -0.8892563    -0.8672538
H           3.2282291    -1.3229815    -1.8014124
C           4.7386609    -1.3741391    -0.2630415
H           5.2942308    -2.1781728    -0.7391354
30
385_C14H15N_0-6-25-26 (120,) energy =    -597.2724286
C           0.4318093     0.3733658    -0.3080225
H           0.5125996     0.6103216     0.7575350
C          -0.6137292     1.3129258    -0.9207271
H          -1.5985428     1.1414457    -0.4739379
H          -0.7088119     1.1564147    -2.0020789
H          -0.3209940     2.3544123    -0.7571355
N           1.7527387     0.6829927    -0.9037198