32
371_C13H18O_0-15-17-27 (-165,) energy =    -581.4586574
C           0.3697778    -1.3895662    -0.7655130
H           0.8162926    -2.0054970    -1.5552455
H           0.5053710    -1.9344236     0.1782058
C          -1.1253021    -1.1566005    -1.0311321
H          -1.2526427    -0.6865677    -2.0174522
H          -1.6476152    -2.1199919    -1.0779268
C          -1.7509634    -0.2569069     0.0449388
H          -1.7501646    -0.7896897     1.0070389
H          -2.8004978    -0.0462492    -0.1962107
C          -0.9649261     1.0538959     0.1937936
H          -1.3805828     1.6604729     1.0077045
H          -1.0769782     1.6502217    -0.7239962
C           0.5301956     0.7987909     0.4537118
H           0.6577717     0.2679718     1.4077879
H           1.0632011     1.7494471     0.5476019
C           1.1372700    -0.0687684    -0.6589264
H           1.0778800     0.4700958    -1.6182270
O           2.5079034    -0.4452558    -0.4177581
C           5.4522804     2.1836868     0.9127507
H           6.2385896     2.8457850     1.2642316
C           5.3877082     0.8657737     1.3711099
H           6.1299331     0.5065015     2.0807020
C           4.3867605    -0.0131671     0.9477051
C           4.3186437    -1.4370969     1.4398102
H           5.1134834    -1.6369400     2.1651870
H           4.4194250    -2.1518462     0.6145449
H           3.3548813    -1.6495423     1.9174905
C           3.4311335     0.4665639     0.0309023
C           3.4970032     1.7792499    -0.4485234
H           2.7707656     2.1236208    -1.1785759
C           4.5027706     2.6375649    -0.0007820
H           4.5434840     3.6568579    -0.3758973
32
371_C13H18O_0-15-17-27 (-150,) energy =    -581.4559116
C           0.4148980    -1.3909202    -0.7373964
H           0.8202899    -2.0443961    -1.5190191
H           0.6447536    -1.8658956     0.2257433
C          -1.1042734    -1.2248298    -0.8937103
H          -1.3276441    -0.8250556    -1.8938202
H          -1.5932675    -2.2050009    -0.8357799
C          -1.6716210    -0.2760493     0.1720707
H          -1.5721423    -0.7441547     1.1623462
H          -2.7443830    -0.1133675     0.0085333
C          -0.9233208     1.0647508     0.1710096
H          -1.2930654     1.7107433     0.9767295
H          -1.1307149     1.5952318    -0.7701901
C           0.5971834     0.8771402     0.3216740
H           0.8216132     0.4222944     1.2969223
H           1.0960505     1.8503723     0.3064073
C           1.1403274    -0.0422485    -0.7812131
H           0.9731387     0.4339150    -1.7605068
O           2.5474344    -0.3581597    -0.6678222
C           5.4059199     2.1421789     1.0441202
H           6.1696676     2.7724699     1.4910891
C           5.2760045     0.8106666     1.4441330
H           5.9439327     0.4098638     2.2035602
C           4.3007207    -0.0305343     0.8981421
C           4.1651499    -1.4699843     1.3277942
H           4.9019406    -1.7172717     2.0984539
H           4.3072554    -2.1546985     0.4837883
H           3.1665266    -1.6768398     1.7307617
C           3.4440167     0.5037249    -0.0825530
C           3.5819199     1.8299584    -0.5064991
H           2.9333066     2.2073717    -1.2918993
C           4.5551877     2.6513129     0.0637316
H           4.6519759     3.6817831    -0.2680404
32
371_C13H18O_0-15-17-27 (-135,) energy =    -581.4536952
C          -0.2366357     1.3751335    -0.4258868
H          -0.3265721     2.4482217    -0.2200484
H           0.0634986     1.2767502    -1.4783783
C          -1.5732978     0.6547431    -0.1898558
H          -1.9109275     0.8409832     0.8404024
H          -2.3445254     1.0725979    -0.8485361
C          -1.4374692    -0.8591019    -0.4125815
H          -1.2328988    -1.0514458    -1.4760213
H          -2.3819841    -1.3662696    -0.1786461
C          -0.2966074    -1.4441983     0.4335413
H          -0.1732395    -2.5136064     0.2228851
H          -0.5582735    -1.3660419     1.4991210
C           1.0350281    -0.7138050     0.1818129
H           1.3494889    -0.8686332    -0.8588743
H           1.8239936    -1.1358344     0.8145665
C           0.8773557     0.7873530     0.4446037
H           0.6146202     0.9277697     1.5047085
O           2.0653962     1.5847686     0.2025600
C           5.8433410    -0.0438615    -0.4649394
H           6.8375709    -0.4477260    -0.6354991
C           5.3845978     0.1505943     0.8392189
H           6.0292888    -0.0997037     1.6791006
C           4.1116011     0.6718067     1.0985088
C           3.6237793     0.9065308     2.5068812
H           4.4419848     0.8079736     3.2270014
H           2.8432648     0.1894295     2.7945530
H           3.1878458     1.9062095     2.6084954
C           3.2944992     0.9933748    -0.0014252
C           3.7533633     0.8167983    -1.3091349
H           3.1026045     1.1043469    -2.1296839
C           5.0261423     0.2955949    -1.5432572
H           5.3762901     0.1596066    -2.5630858
32
371_C13H18O_0-15-17-27 (-120,) energy =    -581.4531327
C          -0.1605494     1.3719417    -0.4601519
H          -0.2613876     2.4488913    -0.2822889
H           0.2440295     1.2527094    -1.4754236
C          -1.5210174     0.6642462    -0.3545563
H          -1.9663550     0.8775552     0.6284768
H          -2.2134804     1.0697421    -1.1024431
C          -1.3747856    -0.8558868    -0.5239781
H          -1.0563341    -1.0768608    -1.5533022
H          -2.3443263    -1.3501296    -0.3833442
C          -0.3407674    -1.4287081     0.4577902
H          -0.2087804    -2.5046456     0.2901071
H          -0.7170100    -1.3182668     1.4854808
C           1.0191373    -0.7174529     0.3331416
H           1.4421720    -0.9098087    -0.6609636
H           1.7307840    -1.1224381     1.0623767
C           0.8457946     0.7900876     0.5375577
H           0.4579885     0.9523972     1.5544088
O           2.0645436     1.5758282     0.4750417
C           5.7891146     0.0169711    -0.5594634
H           6.7711028    -0.3688853    -0.8192839
C           5.4515690     0.2199237     0.7799925
H           6.1768022    -0.0086498     1.5580252
C           4.1962487     0.7140751     1.1526363
C           3.8324471     0.9466593     2.5982590
H           4.6920574     0.7684172     3.2517977
H           3.0212024     0.2832887     2.9248331
H           3.4812840     1.9720433     2.7571578
C           3.2730432     1.0081305     0.1322184
C           3.6106842     0.8248307    -1.2117988
H           2.8857525     1.0934470    -1.9747025
C           4.8655460     0.3229639    -1.5588612
H           5.1205774     0.1808731    -2.6057505
32
371_C13H18O_0-15-17-27 (-105,) energy =    -581.4536611
C          -0.1062849     1.3204833    -0.4697025
H          -0.1730475     2.3966622    -0.2727598
H           0.3739612     1.2039152    -1.4512515
C          -1.5018251     0.6751257    -0.5018575
H          -2.0238087     0.8927507     0.4417107
H          -2.1048867     1.1245400    -1.3003151
C          -1.4090913    -0.8472812    -0.6891972
H          -0.9978644    -1.0644664    -1.6860761
H          -2.4098513    -1.2961997    -0.6595546
C          -0.5083763    -1.4889798     0.3780515
H          -0.4136366    -2.5670684     0.1993735
H          -0.9798930    -1.3774294     1.3654033
C           0.8906200    -0.8456496     0.4038905
H           1.4068354    -1.0601596    -0.5393400
H           1.5004089    -1.2806651     1.2051982
C           0.7684381     0.6671729     0.6070452
H           0.2761474     0.8324567     1.5760134
O           2.0215357     1.3788352     0.7546462
C           5.7092862     0.0382217    -0.6556847
H           6.6837231    -0.2928350    -1.0040358
C           5.4985253     0.2833609     0.7025776
H           6.3142255     0.1408241     1.4081375
C           4.2561707     0.7042991     1.1885082
C           4.0284304     0.9713913     2.6556492
H           4.9395027     0.7831282     3.2322427
H           3.2311254     0.3368991     3.0612594
H           3.7187064     2.0082346     2.8293135
C           3.2096514     0.8862862     0.2640804
C           3.4195435     0.6637643    -1.1011581
H           2.6107831     0.8469503    -1.8013727
C           4.6647314     0.2303496    -1.5588363
H           4.8166662     0.0562691    -2.6208866
32
371_C13H18O_0-15-17-27 (-90,) energy =    -581.4543211
C           0.0115555     1.2974757    -0.4004868
H           0.0186152     2.3652500    -0.1524722
H           0.5291579     1.1905507    -1.3620066
C          -1.4282022     0.7725495    -0.5396211
H          -1.9862273     0.9941883     0.3821388
H          -1.9428853     1.3045044    -1.3490281
C          -1.4509744    -0.7435407    -0.7908831
H          -0.9942384    -0.9561145    -1.7687364
H          -2.4861489    -1.1032585    -0.8447516
C          -0.6834832    -1.5033253     0.3028149
H          -0.6721467    -2.5785012     0.0861413
H          -1.2101057    -1.3848419     1.2611723
C           0.7607099    -0.9889681     0.4466633
H           1.3231264    -1.2268117    -0.4631152
H           1.2708267    -1.4934774     1.2762351
C           0.7557214     0.5234315     0.6970517
H           0.2072376     0.6947417     1.6332376
O           2.0450782     1.0923960     1.0073539
C           5.7228569     0.1561400    -0.7243284
H           6.6979486    -0.0713708    -1.1457027
C           5.5991896     0.4762716     0.6297811
H           6.4847619     0.4960662     1.2613644
C           4.3608696     0.7668596     1.2066756
C           4.2304632     1.1098419     2.6695743
H           5.2030332     1.0600753     3.1691622
H           3.5440468     0.4248159     3.1811462
H           3.8229403     2.1179498     2.8103405
C           3.2150025     0.7381230     0.3829285
C           3.3334713     0.4364454    -0.9786872
H           2.4593997     0.4462332    -1.6183348
C           4.5840254     0.1383246    -1.5251951
H           4.6593839    -0.0978758    -2.5835115
32
371_C13H18O_0-15-17-27 (-75,) energy =    -581.4546127
C           0.1405724     1.2402506    -0.3208911
H           0.2293195     2.2892708    -0.0147377
H           0.6909999     1.1377873    -1.2629173
C          -1.3324927     0.8578627    -0.5503645
H          -1.9148829     1.0939859     0.3524042
H          -1.7529978     1.4678038    -1.3591717
C          -1.4829738    -0.6377181    -0.8711113
H          -0.9931693    -0.8532196    -1.8323461
H          -2.5425322    -0.8932984    -0.9969043
C          -0.8537180    -1.5120610     0.2251809
H          -0.9360244    -2.5737784    -0.0375172
H          -1.4165296    -1.3784570     1.1607099
C           0.6236697    -1.1490115     0.4629982
H           1.2099922    -1.4182482    -0.4219877
H           1.0341367    -1.7229880     1.3023195
C           0.7522379     0.3494428     0.7712869
H           0.1737102     0.5345903     1.6860198
O           2.0673099     0.7607377     1.1867912
C           5.7250381     0.3202341    -0.7706160
H           6.6977736     0.2213376    -1.2437681
C           5.6297266     0.6927962     0.5731008
H           6.5350767     0.8834355     1.1454391
C           4.3978238     0.8260985     1.2138190
C           4.2999730     1.2274831     2.6641227
H           5.2956187     1.3588068     3.0992433
H           3.7619356     0.4741678     3.2516621
H           3.7452842     2.1659475     2.7836696
C           3.2209495     0.5775047     0.4704797
C           3.3081857     0.2109408    -0.8775100
H           2.4160871     0.0304479    -1.4618333
C           4.5585459     0.0811774    -1.4895432
H           4.6066545    -0.2058611    -2.5368731
32
371_C13H18O_0-15-17-27 (-60,) energy =    -581.4546402
C           0.2865858     1.1643265    -0.2496337
H           0.4659610     2.1903680     0.0930739
H           0.8517241     1.0377136    -1.1792054
C          -1.2101475     0.9358830    -0.5285787
H          -1.7923891     1.2036154     0.3653823
H          -1.5441831     1.6074069    -1.3289081
C          -1.5002051    -0.5271935    -0.8995453
H          -1.0075960    -0.7636223    -1.8543976
H          -2.5761034    -0.6705142    -1.0598545
C          -0.9925152    -1.4910733     0.1845587
H          -1.1739130    -2.5314853    -0.1114818
H          -1.5639136    -1.3267683     1.1100028
C           0.5062741    -1.2836662     0.4680773
H           1.0853053    -1.5841022    -0.4121485
H           0.8379663    -1.9193391     1.2975343
C           0.7754614     0.1854981     0.8278869
H           0.1942725     0.3978803     1.7348805
O           2.1142294     0.4361470     1.2916862
C           5.7046115     0.4814514    -0.8329047
H           6.6602961     0.5063987    -1.3485605
C           5.6109191     0.8942089     0.4992078
H           6.5007475     1.2418783     1.0196900
C           4.4000099     0.8774251     1.1911930
C           4.3038391     1.3248528     2.6280579
H           5.2813284     1.6455317     3.0016249
H           3.9345131     0.5196717     3.2743538
H           3.6002217     2.1583190     2.7410115
C           3.2427421     0.4260808     0.5150077
C           3.3296257     0.0062980    -0.8174225
H           2.4557836    -0.3499277    -1.3456011
C           4.5583549     0.0383395    -1.4840469
H           4.6059190    -0.2906797    -2.5189834
32
371_C13H18O_0-15-17-27 (-45,) energy =    -581.4544249
C           0.4518360     1.0681146    -0.1998384
H           0.7334555     2.0633270     0.1649728
H           1.0107094     0.9003264    -1.1269253
C          -1.0579777     1.0045072    -0.4953801
H          -1.6181359     1.3049860     0.4022502
H          -1.3119411     1.7309016    -1.2770026
C          -1.4957007    -0.4082353    -0.9133988
H          -1.0251137    -0.6640656    -1.8742432
H          -2.5798467    -0.4341156    -1.0801298
C          -1.0953570    -1.4528551     0.1404107
H          -1.3761172    -2.4600353    -0.1909852
H          -1.6552028    -1.2634061     1.0681638
C           0.4136772    -1.4018826     0.4377355
H           0.9677932    -1.7174168    -0.4544808
H           0.6792869    -2.1003288     1.2399066
C           0.8250326     0.0182911     0.8543312
H           0.2606424     0.2586309     1.7651686
O           2.1842836     0.0974590     1.3284430
C           5.6753968     0.6255480    -0.8936394
H           6.6038849     0.7722261    -1.4380936
C           5.5530430     1.0752783     0.4234859
H           6.3927433     1.5744992     0.9022578
C           4.3728408     0.9097381     1.1506240
C           4.2441241     1.3989337     2.5713805
H           5.1618975     1.8998243     2.8950121
H           4.0409499     0.5728079     3.2631777
H           3.4101625     2.1027709     2.6774856
C           3.2840406     0.2627131     0.5254035
C           3.4045476    -0.2047555    -0.7884159
H           2.5832972    -0.7261933    -1.2634216
C           4.5955467    -0.0150440    -1.4942511
H           4.6712997    -0.3810338    -2.5149602
32
371_C13H18O_0-15-17-27 (-30,) energy =    -581.4539716
C           0.6081839     0.9705793    -0.1400209
H           0.9953466     1.9236332     0.2409773
H           1.1394243     0.7641154    -1.0763178
C          -0.9022439     1.0728077    -0.4213371
H          -1.4227236     1.3946685     0.4925798
H          -1.0850372     1.8507884    -1.1726671
C          -1.4847984    -0.2704178    -0.8886484
H          -1.0518246    -0.5317602    -1.8654800
H          -2.5677241    -0.1807008    -1.0407876
C          -1.1792053    -1.3922276     0.1161816
H          -1.5547270    -2.3536091    -0.2551397
H          -1.7139949    -1.1919727     1.0564115
C           0.3290098    -1.4926467     0.4018223
H           0.8519599    -1.8047630    -0.5118998
H           0.5356598    -2.2533833     1.1635718
C           0.8792027    -0.1415172     0.8784655
H           0.3533642     0.1195845     1.8070218
O           2.2537190    -0.2502264     1.3165058
C           5.6267080     0.7490601    -0.9236617
H           6.5225670     1.0116645    -1.4793824
C           5.4325245     1.2438547     0.3675814
H           6.1825350     1.8937932     0.8131891
C           4.2887186     0.9331981     1.1091627
C           4.0805912     1.4681213     2.5041113
H           4.9044916     2.1270494     2.7956319
H           4.0134585     0.6565644     3.2380393
H           3.1446029     2.0338849     2.5813701
C           3.3235055     0.0903409     0.5224735
C           3.5214027    -0.4266135    -0.7628437
H           2.7899986    -1.1048044    -1.1886028
C           4.6660956    -0.0887353    -1.4869853
H           4.8066620    -0.4931702    -2.4860205
32
371_C13H18O_0-15-17-27 (-15,) energy =    -581.4533218
C           0.7307617     0.8791929    -0.1178840
H           1.2159945     1.7929240     0.2463483
H           1.2009962     0.6324953    -1.0776580
C          -0.7752340     1.1181448    -0.3322719
H          -1.2271467     1.4650726     0.6085857
H          -0.9188128     1.9251294    -1.0612294
C          -1.4924570    -0.1584044    -0.7984869
H          -1.1254834    -0.4336196    -1.7982095
H          -2.5689021     0.0280858    -0.9009113
C          -1.2425197    -1.3244019     0.1705082
H          -1.7075999    -2.2436112    -0.2063940
H          -1.7256157    -1.1046490     1.1340818
C           0.2613000    -1.5508791     0.3970310
H           0.7319621    -1.8759595    -0.5416438
H           0.4338841    -2.3454303     1.1322100
C           0.9462454    -0.2657052     0.8759892
H           0.4946457     0.0261773     1.8349736
O           2.3290446    -0.5482276     1.2116570
C           5.6000219     0.8615814    -0.9544850
H           6.4683282     1.2241689    -1.4978051
C           5.3031583     1.3748898     0.3094586
H           5.9455198     2.1372825     0.7449340
C           4.1917544     0.9348916     1.0371776
C           3.8732363     1.4829170     2.4062134
H           4.6329205     2.2034273     2.7250016
H           3.8206260     0.6821373     3.1521522
H           2.9000824     1.9893665     2.4229097
C           3.3733434    -0.0541964     0.4606033
C           3.6759653    -0.5874542    -0.7962606
H           3.0468110    -1.3752491    -1.1996665
C           4.7833505    -0.1242146    -1.5078604
H           5.0100940    -0.5415319    -2.4854596
32
371_C13H18O_0-15-17-27 (0,) energy =    -581.4531866
C           0.8103962     0.7985156    -0.1813046
H           1.3753527     1.6891711     0.1174866
H           1.2069382     0.4861970    -1.1560481
C          -0.6857240     1.1351730    -0.3195425
H          -1.0564573     1.5449789     0.6315356
H          -0.8154385     1.9255998    -1.0689210
C          -1.5160408    -0.1018382    -0.6952816
H          -1.2280932    -0.4377775    -1.7022247
H          -2.5810880     0.1576851    -0.7442180
C          -1.2908704    -1.2465936     0.3043242
H          -1.8405495    -2.1433668    -0.0068952
H          -1.6993397    -0.9567045     1.2838017
C           0.2038094    -1.5718943     0.4534698
H           0.5989193    -1.9612865    -0.4955874
H           0.3641823    -2.3505990     1.2081572
C           1.0076173    -0.3267483     0.8381865
H           0.6470940     0.0325180     1.8142655
O           2.3831195    -0.7337608     1.0629586
C           5.6519242     0.9571275    -0.8929577
H           6.5189966     1.3882125    -1.3859701
C           5.2475839     1.4392191     0.3534103
H           5.8063562     2.2441120     0.8261838
C           4.1364303     0.9085434     1.0187219
C           3.7060415     1.4156553     2.3729574
H           4.4399158     2.1182552     2.7798582
H           3.5836377     0.5896312     3.0817822
H           2.7398901     1.9350572     2.3251274
C           3.4292809    -0.1352233     0.3936032
C           3.8387793    -0.6344095    -0.8458318
H           3.2868912    -1.4615603    -1.2828530
C           4.9464972    -0.0858575    -1.4930736
H           5.2584494    -0.4774836    -2.4576956
32
371_C13H18O_0-15-17-27 (15,) energy =    -581.4539826
C           0.9510952     0.0432937    -0.9134377
H           1.5716318     0.5683386    -1.6454339
H           1.4744055    -0.8921939    -0.6691732
C          -0.4267212    -0.2765699    -1.5225957
H          -0.8974583     0.6581293    -1.8614543
H          -0.2947393    -0.8976942    -2.4169701
C          -1.3556677    -0.9735179    -0.5172439
H          -0.9451965    -1.9639729    -0.2717427
H          -2.3408979    -1.1457055    -0.9685797
C          -1.4941565    -0.1499474     0.7720200
H          -2.1089391    -0.6846516     1.5063894
H          -2.0227324     0.7884578     0.5485207
C          -0.1182462     0.1696593     1.3765778
H           0.3755507    -0.7593123     1.6934884
H          -0.2150142     0.7992801     2.2686551
C           0.7868115     0.8739518     0.3630337
H           0.3156309     1.8308451     0.0851453
O           2.0141562     1.2026967     1.0609678
C           5.8372104     0.8923755    -0.5676083
H           6.8444931     0.8145826    -0.9674017
C           5.4590825     0.1153448     0.5289412
H           6.1788441    -0.5648273     0.9793065
C           4.1698625     0.1824484     1.0692092
C           3.7670634    -0.6545106     2.2579167
H           4.6160723    -1.2366684     2.6296965
H           2.9624792    -1.3556766     2.0041051
H           3.3904773    -0.0307484     3.0759813
C           3.2520802     1.0692261     0.4757587
C           3.6309194     1.8690421    -0.6078759
H           2.9137926     2.5738576    -1.0192107
C           4.9184975     1.7739605    -1.1364318
H           5.2025239     2.3959874    -1.9812278
32
371_C13H18O_0-15-17-27 (30,) energy =    -581.4563527
C           0.9435171    -0.0998480    -0.8811967
H           1.6386413     0.3430935    -1.5995767
H           1.3665746    -1.0718824    -0.5886613
C          -0.4337858    -0.3088011    -1.5367113
H          -0.8033966     0.6550838    -1.9169833
H          -0.3276085    -0.9644139    -2.4096293
C          -1.4588624    -0.8886810    -0.5507828
H          -1.1499842    -1.9045001    -0.2637093
H          -2.4388387    -0.9841699    -1.0350915
C          -1.5687205    -0.0184188     0.7102419
H          -2.2567728    -0.4737097     1.4330091
H          -2.0007535     0.9568848     0.4418783
C          -0.1939606     0.1933762     1.3627052
H           0.2008301    -0.7651303     1.7267447
H          -0.2672387     0.8581955     2.2311424
C           0.8113819     0.7769680     0.3691253
H           0.4503991     1.7699800     0.0516068
O           2.0354034     0.9742750     1.1131415
C           5.8415754     1.0334127    -0.5788413
H           6.8453420     1.0471909    -0.9943280
C           5.5498128     0.2217779     0.5193023
H           6.3332017    -0.3943723     0.9553660
C           4.2682384     0.1708737     1.0776756
C           3.9556858    -0.7022045     2.2671637
H           4.8365600    -1.2763433     2.5710887
H           3.1462630    -1.4078119     2.0457024
H           3.6217415    -0.1061995     3.1244719
C           3.2658017     0.9731958     0.5009208
C           3.5540599     1.8063911    -0.5855540
H           2.7729621     2.4439870    -0.9897307
C           4.8382602     1.8288267    -1.1308795
H           5.0521538     2.4755632    -1.9778032
32
371_C13H18O_0-15-17-27 (45,) energy =    -581.4589267
C           0.9133334    -0.2484050    -0.8664593
H           1.6719322     0.1047261    -1.5706064
H           1.2253064    -1.2505208    -0.5384800
C          -0.4596560    -0.3311583    -1.5569269
H          -0.7208058     0.6563034    -1.9657226
H          -0.3992606    -1.0132665    -2.4137729
C          -1.5613517    -0.7840179    -0.5868142
H          -1.3648464    -1.8203730    -0.2754025
H          -2.5347314    -0.7881582    -1.0933154
C          -1.6118022     0.1165741     0.6568761
H          -2.3597956    -0.2531658     1.3687852
H          -1.9363985     1.1251679     0.3614089
C          -0.2395049     0.2022545     1.3427797
H           0.0485396    -0.7836818     1.7324571
H          -0.2678844     0.8873435     2.1980299
C           0.8419668     0.6626168     0.3653442
H           0.5953104     1.6840021     0.0288661
O           2.0629990     0.7191611     1.1283765
C           5.8463961     1.1804605    -0.5509480
H           6.8459048     1.2939454    -0.9611305
C           5.6301121     0.3410367     0.5444166
H           6.4674195    -0.1964999     0.9843029
C           4.3580962     0.1629464     1.0955707
C           4.1232397    -0.7406314     2.2799322
H           5.0531932    -1.2286839     2.5878524
H           3.3855894    -1.5183630     2.0494040
H           3.7277959    -0.1833190     3.1373357
C           3.2826057     0.8628299     0.5145815
C           3.4911039     1.7197130    -0.5716245
H           2.6566280     2.2753284    -0.9884364
C           4.7714048     1.8711756    -1.1071333
H           4.9230928     2.5361867    -1.9533810
32
371_C13H18O_0-15-17-27 (60,) energy =    -581.4610400
C           0.8429698    -0.3862973    -0.8935893
H           1.6353628    -0.1125248    -1.5969485
H           1.0528216    -1.4128506    -0.5612747
C          -0.5320457    -0.3316207    -1.5815110
H          -0.6965672     0.6773497    -1.9882358
H          -0.5430159    -1.0152422    -2.4392253
C          -1.6680374    -0.6758081    -0.6061223
H          -1.5733840    -1.7275333    -0.2987307
H          -2.6400277    -0.5817605    -1.1064887
C          -1.6225902     0.2213344     0.6404825
H          -2.4002803    -0.0748952     1.3549441
H          -1.8477078     1.2579402     0.3492715
C          -0.2457883     0.1707000     1.3214371
H          -0.0539643    -0.8396503     1.7077243
H          -0.2049395     0.8530333     2.1783840
C           0.8712071     0.5260721     0.3397011
H           0.7336208     1.5713839     0.0185902
O           2.0970278     0.4255938     1.0822905
C           5.8573322     1.3135323    -0.4759121
H           6.8523347     1.5327288    -0.8526001
C           5.6933363     0.4641667     0.6218489
H           6.5671226     0.0249581     1.0984592
C           4.4305854     0.1542094     1.1301140
C           4.2515688    -0.7586092     2.3169537
H           5.2164750    -1.1437873     2.6609747
H           3.6063287    -1.6104473     2.0718068
H           3.7713817    -0.2379143     3.1542088
C           3.3034754     0.7261039     0.5037151
C           3.4563793     1.5861796    -0.5890725
H           2.5885272     2.0395890    -1.0557098
C           4.7335347     1.8736899    -1.0773562
H           4.8402562     2.5412148    -1.9285187
32
371_C13H18O_0-15-17-27 (75,) energy =    -581.4621381
C           0.7533532    -0.5039328    -0.9583666
H           1.5477668    -0.2974326    -1.6836214
H           0.8798028    -1.5471146    -0.6372004
C          -0.6314936    -0.3187384    -1.6014001
H          -0.7174659     0.7047942    -1.9958245
H          -0.7333063    -0.9905637    -2.4624708
C          -1.7601934    -0.5680942    -0.5892812
H          -1.7519892    -1.6273651    -0.2935864
H          -2.7360842    -0.3801104    -1.0542988
C          -1.5904890     0.3073100     0.6621718
H          -2.3680962     0.0756851     1.4002272
H          -1.7293253     1.3633011     0.3869270
C          -0.2021761     0.1246993     1.2962598
H          -0.0907261    -0.9030740     1.6679169
H          -0.0724074     0.7910788     2.1569292
C           0.9096654     0.3894143     0.2794104
H           0.8662107     1.4481015    -0.0177307
O           2.1472686     0.1425761     0.9617676
C           5.8671600     1.4628788    -0.3733613
H           6.8526314     1.7915924    -0.6906221
C           5.7303470     0.6063972     0.7233450
H           6.6158615     0.2715726     1.2593659
C           4.4817963     0.1613544     1.1578207
C           4.3318682    -0.7584203     2.3431984
H           5.3097955    -1.0195894     2.7593131
H           3.8147872    -1.6851802     2.0674203
H           3.7328380    -0.2946345     3.1362474
C           3.3363876     0.5998184     0.4577121
C           3.4612047     1.4569758    -0.6408662
H           2.5855363     1.7970396    -1.1815032
C           4.7276453     1.8849592    -1.0506774
H           4.8110290     2.5502918    -1.9061655
32
371_C13H18O_0-15-17-27 (90,) energy =    -581.4619459
C           0.6559652    -0.6059689    -1.0479630
H           1.4188189    -0.4506170    -1.8198795
H           0.7312619    -1.6564685    -0.7356659
C          -0.7490028    -0.3239180    -1.6066443
H          -0.7870427     0.7032801    -1.9990412
H          -0.9503363    -0.9867475    -2.4571216
C          -1.8278442    -0.4933241    -0.5260815
H          -1.8750164    -1.5502867    -0.2257687
H          -2.8151319    -0.2382110    -0.9311392
C          -1.5199959     0.3692938     0.7075933
H          -2.2667385     0.1964749     1.4922267
H          -1.5978138     1.4321808     0.4347010
C          -0.1128484     0.0866878     1.2585368
H          -0.0548197    -0.9459758     1.6288357
H           0.1156135     0.7428818     2.1064993
C           0.9550773     0.2681432     0.1765459
H           0.9851596     1.3276225    -0.1133184
O           2.2100718    -0.0958460     0.7713406
C           5.8664885     1.6161388    -0.2582932
H           6.8350611     2.0460529    -0.4968038
C           5.7301130     0.7506121     0.8314204
H           6.5985751     0.5109243     1.4412543
C           4.5026127     0.1809101     1.1692839
C           4.3528232    -0.7499066     2.3460044
H           5.3051732    -0.8686533     2.8719784
H           4.0080761    -1.7423287     2.0309434
H           3.6080211    -0.3759611     3.0584839
C           3.3782219     0.4999629     0.3763228
C           3.5048017     1.3569747    -0.7222051
H           2.6496582     1.5892973    -1.3464642
C           4.7492035     1.9144269    -1.0316307
H           4.8340473     2.5792572    -1.8873676
32
371_C13H18O_0-15-17-27 (105,) energy =    -581.4611027
C           0.5613932    -0.7046555    -1.1306482
H           1.2761119    -0.6005350    -1.9563415