20
302_C8H10O2_0-4-15-16 (-165,) energy =    -461.2838800
C           2.0134818    -2.3196533    -0.6553152
H           1.4076996    -1.5317279    -1.1150404
H           1.6689589    -2.4850886     0.3682214
H           1.9075798    -3.2415085    -1.2331757
O           3.4051274    -2.0150378    -0.7081547
C           5.2927100     1.5146946     0.4789846
H           5.8057906     2.4249934     0.7751931
C           3.9904149     1.2828450     0.9264454
H           3.5145537     2.0138913     1.5698866
C           3.2972342     0.1199084     0.5721482
O           2.0303587    -0.1684009     1.0194243
C           1.3811893     0.7720317     1.8563906
H           0.4010467     0.3453685     2.0789950
H           1.2490378     1.7398716     1.3543111
H           1.9296570     0.9262759     2.7952409
C           3.9228002    -0.8248797    -0.2774330
C           5.2316238    -0.5791301    -0.7043544
H           5.6895481    -1.3271539    -1.3443271
C           5.9189622     0.5751846    -0.3348429
H           6.9335849     0.7352510    -0.6879044
20
302_C8H10O2_0-4-15-16 (-150,) energy =    -461.2847450
C           2.0212323    -2.2714202    -0.7204007
H           1.5851218    -1.4517641    -1.3033449
H           1.4891767    -2.3579258     0.2293970
H           1.9268988    -3.2035017    -1.2840786
O           3.4239559    -2.0891267    -0.5308356
C           5.2688852     1.5334160     0.4136481
H           5.7670942     2.4685636     0.6526941
C           3.9784374     1.3004859     0.8959084
H           3.4990883     2.0529377     1.5116320
C           3.3104969     0.1035735     0.6158015
O           2.0680059    -0.2074568     1.1081210
C           1.4059982     0.7494633     1.9167726
H           0.4477873     0.3006257     2.1859274
H           1.2270865     1.6867579     1.3730153
H           1.9729117     0.9671847     2.8316315
C           3.9406460    -0.8652595    -0.2016116
C           5.2372892    -0.6205414    -0.6594808
H           5.7009101    -1.3909613    -1.2680102
C           5.9057337     0.5655530    -0.3575402
H           6.9119842     0.7293254    -0.7321735
20
302_C8H10O2_0-4-15-16 (-135,) energy =    -461.2855430
C           2.0306994    -2.2236232    -0.8319468
H           1.8157135    -1.4762291    -1.6065317
H           1.3239462    -2.1013876    -0.0083703
H           1.9309009    -3.2235678    -1.2622139
O           3.3858145    -2.1300500    -0.3895613
C           5.2354938     1.5369768     0.3446770
H           5.7308150     2.4845045     0.5370279
C           3.9582802     1.3131937     0.8672798
H           3.4863831     2.0846259     1.4651486
C           3.2997144     0.0995523     0.6454125
O           2.0729606    -0.2147321     1.1685220
C           1.4216274     0.7496976     1.9781329
H           0.4794187     0.2929311     2.2870192
H           1.2115536     1.6723767     1.4207779
H           2.0145895     0.9946859     2.8691163
C           3.9230117    -0.8921165    -0.1481506
C           5.2029754    -0.6557423    -0.6491483
H           5.6617038    -1.4443071    -1.2379144
C           5.8655698     0.5485842    -0.4055741
H           6.8607353     0.7105948    -0.8093542
20
302_C8H10O2_0-4-15-16 (-120,) energy =    -461.2861595
C           2.0975079    -2.2111945    -0.9301196
H           2.1841523    -1.7545422    -1.9254822
H           1.2993061    -1.7172183    -0.3696155
H           1.8665559    -3.2733009    -1.0416726
O           3.3451110    -2.1543682    -0.2355768
C           5.1943406     1.5425578     0.3230650
H           5.6845122     2.4996325     0.4784992
C           3.9331912     1.3217154     0.8867889
H           3.4686878     2.1050599     1.4750476
C           3.2836181     0.0966438     0.7089447
O           2.0694239    -0.2217126     1.2537204
C           1.4357359     0.7381117     2.0834137
H           0.5099180     0.2719169     2.4256232
H           1.1965125     1.6571125     1.5317051
H           2.0572292     0.9914300     2.9522274
C           3.9024431    -0.9096312    -0.0688444
C           5.1619079    -0.6753721    -0.6147552
H           5.6166388    -1.4757868    -1.1907035
C           5.8157937     0.5444922    -0.4209634
H           6.7979552     0.7087744    -0.8545032
20
302_C8H10O2_0-4-15-16 (-105,) energy =    -461.2861226
C           2.1609231    -2.2169792    -1.0202093
H           2.4691799    -1.9295516    -2.0347870
H           1.3425115    -1.5676335    -0.6898006
H           1.8206768    -3.2553617    -1.0265346
O           3.2647126    -2.1647558    -0.1163925
C           5.1539046     1.5273962     0.3017841
H           5.6494235     2.4861533     0.4277376
C           3.9142546     1.3158389     0.9161021
H           3.4690688     2.1088039     1.5065414
C           3.2592078     0.0894286     0.7719199
O           2.0515454    -0.2220460     1.3300358
C           1.4244311     0.7516188     2.1483403
H           0.4980422     0.2940559     2.5004572
H           1.1870384     1.6639313     1.5846438
H           2.0497397     1.0150890     3.0115329
C           3.8614027    -0.9302546     0.0005853
C           5.0909261    -0.7019394    -0.6084649
H           5.5279348    -1.5096508    -1.1883582
C           5.7473287     0.5237970    -0.4576342
H           6.7101983     0.6871104    -0.9327922
20
302_C8H10O2_0-4-15-16 (-90,) energy =    -461.2853655
C           2.2524602    -2.2569704    -1.1162451
H           2.7534265    -2.1026144    -2.0818179
H           1.4304543    -1.5365277    -1.0174117
H           1.8500926    -3.2721447    -1.0753818
O           3.1714479    -2.1443908    -0.0320310
C           5.1294046     1.5208142     0.2867252
H           5.6401438     2.4743598     0.3900256
C           3.9109859     1.3243744     0.9466795
H           3.4942229     2.1264318     1.5455188
C           3.2369035     0.1049656     0.8278039
O           2.0382615    -0.1870254     1.4112848
C           1.4409054     0.8018769     2.2329598
H           0.5144342     0.3607284     2.6053032
H           1.2064371     1.7135236     1.6666801
H           2.0850836     1.0631585     3.0830466
C           3.8082185    -0.9261273     0.0499785
C           5.0137668    -0.7123872    -0.6097629
H           5.4261944    -1.5274892    -1.1978004
C           5.6842942     0.5094568    -0.4918501
H           6.6300821     0.6626727    -1.0032304
20
302_C8H10O2_0-4-15-16 (-75,) energy =    -461.2845970
C           2.3488202    -2.3292395    -1.2243825
H           3.0295381    -2.3247103    -2.0864549
H           1.5643868    -1.5777515    -1.3859895
H           1.8902657    -3.3169289    -1.1340357
O           3.0423366    -2.0952272    -0.0026287
C           5.1081032     1.5132491     0.2865664
H           5.6432637     2.4537345     0.3853473
C           3.9047989     1.3376738     0.9781946
H           3.5231904     2.1425811     1.5962494
C           3.1961765     0.1368389     0.8644933
O           2.0082986    -0.1302697     1.4787966
C           1.4588090     0.8661138     2.3237377
H           0.5308468     0.4457742     2.7160448
H           1.2334565     1.7888031     1.7716067
H           2.1306068     1.1035179     3.1595286
C           3.7205681    -0.8987520     0.0597681
C           4.9168641    -0.7082361    -0.6252581
H           5.3026747    -1.5256132    -1.2283169
C           5.6173374     0.4969872    -0.5166283
H           6.5535674     0.6316410    -1.0503722
20
302_C8H10O2_0-4-15-16 (-60,) energy =    -461.2843327
C           2.4233679    -2.3869740    -1.2786548
H           3.2487686    -2.6261644    -1.9622885
H           1.8014802    -1.6041103    -1.7326021
H           1.8212563    -3.2855811    -1.1250001
O           2.8852326    -1.9948093     0.0089355
C           5.0884749     1.5306991     0.3170319
H           5.6544527     2.4519254     0.4241823
C           3.8955968     1.3744369     1.0311805
H           3.5524160     2.1751135     1.6765727
C           3.1463794     0.2002467     0.9064651
O           1.9684843    -0.0448845     1.5481095
C           1.4729984     0.9483712     2.4286850
H           0.5427579     0.5479405     2.8362038
H           1.2621200     1.8898632     1.9030716
H           2.1731250     1.1465716     3.2514787
C           3.6144612    -0.8305952     0.0598094
C           4.8073990    -0.6637054    -0.6389035
H           5.1635735    -1.4732255    -1.2694965
C           5.5466546     0.5171952    -0.5186883
H           6.4757759     0.6327413    -1.0691770
20
302_C8H10O2_0-4-15-16 (-45,) energy =    -461.2850282
C           2.5162086    -2.4709387    -1.3324579
H           3.3972644    -2.9938977    -1.7289881
H           2.2071068    -1.6991161    -2.0487625
H           1.7092242    -3.1963009    -1.2046710
O           2.7540066    -1.9148690    -0.0459067
C           5.0788857     1.5234086     0.3220931
H           5.6716016     2.4251725     0.4476039
C           3.8943589     1.3750720     1.0535703
H           3.5852079     2.1621037     1.7320510
C           3.1109578     0.2280902     0.9063443
O           1.9423389    -0.0095916     1.5679234
C           1.4917276     0.9670335     2.4897127
H           0.5603139     0.5774186     2.9050111
H           1.2941201     1.9297483     1.9984489
H           2.2141253     1.1216364     3.3026566
C           3.5275260    -0.7849301     0.0096127
C           4.7164225    -0.6307907    -0.6997681
H           5.0404233    -1.4208946    -1.3701339
C           5.4905910     0.5259177    -0.5539120
H           6.4119274     0.6323707    -1.1192214
20
302_C8H10O2_0-4-15-16 (-30,) energy =    -461.2864287
C           2.5786441    -2.5088150    -1.3359384
H           3.4741965    -3.1273045    -1.4874839
H           2.4717640    -1.8209029    -2.1845787
H           1.7061488    -3.1637594    -1.2819779
O           2.6187084    -1.8064399    -0.1031976
C           5.0770597     1.5255235     0.3486784
H           5.7005944     2.4027039     0.4963612
C           3.8962415     1.3892845     1.0905517
H           3.6209349     2.1612002     1.8002350
C           3.0754957     0.2747700     0.9162028
O           1.9093514     0.0487046     1.5868804
C           1.4996662     1.0077255     2.5452530
H           0.5622934     0.6326248     2.9605299
H           1.3249098     1.9911007     2.0873925
H           2.2366195     1.1148925     3.3528254
C           3.4447301    -0.7201643    -0.0229885
C           4.6292186    -0.5800725    -0.7429298
H           4.9211297    -1.3500969    -1.4494582
C           5.4429177     0.5461741    -0.5652745
H           6.3592831     0.6416311    -1.1405864
20
302_C8H10O2_0-4-15-16 (-15,) energy =    -461.2875945
C           2.6169429    -2.5488237    -1.3213694
H           3.5317683    -3.1564859    -1.2844774
H           2.6101959    -1.9690616    -2.2540447
H           1.7497706    -3.2118832    -1.2975907
O           2.4949725    -1.7086295    -0.1867627
C           5.0824152     1.5060425     0.3758897
H           5.7356532     2.3557258     0.5525914
C           3.9017452     1.3800819     1.1214384
H           3.6568719     2.1318142     1.8632028
C           3.0449690     0.3009313     0.9123997
O           1.8763948     0.0855236     1.5828982
C           1.4988070     1.0244251     2.5736500
H           0.5509834     0.6652349     2.9791578
H           1.3542379     2.0273079     2.1488702
H           2.2403887     1.0818074     3.3821474
C           3.3745403    -0.6717190    -0.0660513
C           4.5553157    -0.5401562    -0.7936546
H           4.8181981    -1.2856367    -1.5359650
C           5.4079356     0.5513839    -0.5770069
H           6.3218996     0.6386822    -1.1574709
20
302_C8H10O2_0-4-15-16 (0,) energy =    -461.2880383
C           2.8116277    -2.8262827    -0.9412935
H           3.5521251    -3.4099887    -0.3774317
H           3.2179974    -2.5984578    -1.9362821
H           1.8980500    -3.4137322    -1.0513035
O           2.4343312    -1.6500906    -0.2486274
C           5.2410861     1.2830536     0.6805083
H           5.9441637     2.0692304     0.9402346
C           3.8925208     1.4208797     1.0395688
H           3.5697770     2.3090441     1.5708652
C           2.9704211     0.4271063     0.7185426
O           1.6403262     0.4631388     1.0207822
C           1.1495226     1.5964219     1.7138868
H           0.0803643     1.4228191     1.8502265
H           1.2960375     2.5199810     1.1371958
H           1.6266167     1.7090837     2.6971038
C           3.4052907    -0.7307383     0.0230205
C           4.7476742    -0.8558467    -0.3281739
H           5.0893310    -1.7365670    -0.8600091
C           5.6664555     0.1513357     0.0004119
H           6.7088243     0.0351648    -0.2822108
20
302_C8H10O2_0-4-15-16 (15,) energy =    -461.2875943
C           2.8148369    -2.8407062    -0.8971491
H           3.5084005    -3.3387712    -0.2064770
H           3.2857134    -2.7693398    -1.8874132
H           1.8987722    -3.4288069    -0.9818989
O           2.4178062    -1.5712337    -0.4083601
C           5.2515245     1.2680956     0.7116443
H           5.9620718     2.0305136     1.0178369
C           3.9013934     1.4054023     1.0639038
H           3.5849487     2.2697908     1.6366024
C           2.9701835     0.4398824     0.6859555
O           1.6375901     0.4793813     0.9761364
C           1.1532204     1.5876464     1.7128870
H           0.0801567     1.4231470     1.8282132
H           1.3196064     2.5336177     1.1796525
H           1.6189377     1.6500336     2.7060431
C           3.3990147    -0.6895295    -0.0574346
C           4.7417079    -0.8097412    -0.4090454
H           5.0745808    -1.6654379    -0.9859780
C           5.6700115     0.1664687    -0.0208645
H           6.7132784     0.0526661    -0.3010768
20
302_C8H10O2_0-4-15-16 (30,) energy =    -461.2864287
C           2.8006687    -2.8464995    -0.8410233
H           3.4094533    -3.2621030    -0.0277018
H           3.3539868    -2.9402463    -1.7857771
H           1.8674323    -3.4078723    -0.9249427
O           2.4277950    -1.5034557    -0.5730970
C           5.2625710     1.2528216     0.7371107
H           5.9754144     1.9936319     1.0879748
C           3.9106715     1.3832499     1.0815302
H           3.5953309     2.2204097     1.6939204
C           2.9759243     0.4428856     0.6477948
O           1.6412947     0.4791233     0.9275394
C           1.1567633     1.5581680     1.7065985
H           0.0811824     1.3975186     1.8022056
H           1.3366763     2.5250350     1.2171522
H           1.6108242     1.5734674     2.7069970
C           3.4064142    -0.6510998    -0.1435225
C           4.7509137    -0.7605588    -0.4917957
H           5.0780736    -1.5884627    -1.1121775
C           5.6826119     0.1854161    -0.0455121
H           6.7279015     0.0798304    -0.3212704
20
302_C8H10O2_0-4-15-16 (45,) energy =    -461.2850282
C           2.7639882    -2.8481546    -0.7778023
H           3.1762966    -3.1879665     0.1807779
H           3.4693182    -3.1033700    -1.5805205
H           1.8174613    -3.3585423    -0.9709211
O           2.4637146    -1.4589705    -0.7465191
C           5.2772872     1.2307713     0.7405376
H           5.9867297     1.9539432     1.1329111
C           3.9237513     1.3458647     1.0794484
H           3.6041074     2.1526111     1.7293080
C           2.9920447     0.4258558     0.5931701
O           1.6562153     0.4484708     0.8668456
C           1.1656347     1.4913668     1.6903997
H           0.0895224     1.3261701     1.7709998
H           1.3482066     2.4792620     1.2461371
H           1.6124204     1.4619107     2.6937558
C           3.4302546    -0.6251580    -0.2477872
C           4.7775316    -0.7180093    -0.5893694
H           5.1032673    -1.5143353    -1.2514813
C           5.7062659     0.2021054    -0.0899428
H           6.7539858     0.1114701    -0.3616702
20
302_C8H10O2_0-4-15-16 (60,) energy =    -461.2843327
C           2.6934945    -2.7982194    -0.6724400
H           2.7295232    -3.0280914     0.4006625
H           3.6077386    -3.1774754    -1.1480197
H           1.8303454    -3.2951420    -1.1215328
O           2.5078368    -1.4048589    -0.8939762
C           5.2899373     1.2333341     0.7425642
H           5.9953079     1.9410637     1.1692271
C           3.9363168     1.3277140     1.0834287
H           3.6127035     2.1017661     1.7700907
C           3.0095043     0.4255950     0.5516363
O           1.6744223     0.4252619     0.8287451
C           1.1768486     1.4263972     1.6991615
H           0.1019383     1.2502991     1.7721072
H           1.3524009     2.4345205     1.3000138
H           1.6240576     1.3545070     2.7001521
C           3.4547293    -0.5746392    -0.3427169
C           4.8039863    -0.6515174    -0.6784966
H           5.1266886    -1.4129821    -1.3826737
C           5.7278541     0.2465126    -0.1349091
H           6.7769588     0.1748782    -0.4067601
20
302_C8H10O2_0-4-15-16 (75,) energy =    -461.2845970
C           2.6276223    -2.7535150    -0.5982923
H           2.3725525    -2.8158003     0.4681254
H           3.6104745    -3.2175364    -0.7572009
H           1.8773444    -3.2927326    -1.1816382
O           2.5998164    -1.4053274    -1.0565781
C           5.3150380     1.2073170     0.7249342
H           6.0078341     1.9062453     1.1855857
C           3.9584577     1.2707977     1.0607578
H           3.6211179     2.0110011     1.7775514
C           3.0477651     0.3796793     0.4831553
O           1.7116734     0.3434433     0.7539236
C           1.1923434     1.2979943     1.6637438
H           0.1202085     1.1011427     1.7227395
H           1.3529858     2.3247840     1.3086155
H           1.6357591     1.1907563     2.6631789
C           3.5126262    -0.5687614    -0.4545984
C           4.8655771    -0.6224554    -0.7760355
H           5.1938347    -1.3546490    -1.5086843
C           5.7742072     0.2636778    -0.1893623
H           6.8266909     0.2169682    -0.4532502
20
302_C8H10O2_0-4-15-16 (90,) energy =    -461.2853655
C           2.5215624    -2.6657766    -0.5131154
H           2.0888621    -2.5426445     0.4879382
H           3.4732062    -3.2086301    -0.4306065
H           1.8311242    -3.2383515    -1.1372959
O           2.6976952    -1.4066860    -1.1584067
C           5.3340693     1.2183684     0.7197694
H           6.0102291     1.9184258     1.2029899
C           3.9752009     1.2411204     1.0538820
H           3.6198713     1.9520137     1.7914234
C           3.0873572     0.3493536     0.4439955
O           1.7504685     0.2727662     0.7072711
C           1.2038410     1.1881263     1.6417367
H           0.1360683     0.9659512     1.6875618
H           1.3440269     2.2278694     1.3174481
H           1.6438016     1.0610782     2.6402563
C           3.5758143    -0.5586242    -0.5211736
C           4.9307372    -0.5777803    -0.8343939
H           5.2724072    -1.2873424    -1.5827648
C           5.8172044     0.3130715    -0.2204133
H           6.8717953     0.2964842    -0.4793773
20
302_C8H10O2_0-4-15-16 (105,) energy =    -461.2861226
C           2.4142342    -2.6010260    -0.4540442
H           1.8368138    -2.3200026     0.4337782
H           3.2899472    -3.1903990    -0.1494610
H           1.7885134    -3.2010466    -1.1192467
O           2.8071103    -1.4523003    -1.2050706
C           5.3473476     1.2422628     0.7086755
H           6.0016210     1.9578891     1.1990057
C           3.9908765     1.2133703     1.0522249
H           3.6148346     1.9032863     1.7993597
C           3.1286363     0.3043817     0.4323554
O           1.7913166     0.1949861     0.6903607
C           1.2181192     1.0901949     1.6289573
H           0.1553102     0.8440022     1.6660042
H           1.3375812     2.1350444     1.3134466
H           1.6546914     0.9645383     2.6289764
C           3.6415297    -0.5822569    -0.5413804
C           4.9933102    -0.5449266    -0.8670995
H           5.3522613    -1.2358445    -1.6243555
C           5.8528449     0.3696601    -0.2500299
H           6.9050397     0.3932730    -0.5181574
20
302_C8H10O2_0-4-15-16 (120,) energy =    -461.2861595
C           2.3196882    -2.5469690    -0.4364297
H           1.5814366    -2.1420642     0.2609518
H           3.0738488    -3.1206918     0.1193320
H           1.8255872    -3.2055678    -1.1547364
O           2.9358466    -1.5167830    -1.2117957
C           5.3726662     1.2807533     0.6946924
H           6.0066378     2.0178264     1.1796910
C           4.0230638     1.1987429     1.0537197
H           3.6298652     1.8757086     1.8037546
C           3.1833176     0.2647738     0.4397949
O           1.8455774     0.1390448     0.6987246
C           1.2564058     1.0349210     1.6268929
H           0.1962285     0.7768808     1.6588802
H           1.3663697     2.0783751     1.3038245
H           1.6875909     0.9214863     2.6305784
C           3.7171917    -0.6151766    -0.5303358
C           5.0608134    -0.5130509    -0.8816261
H           5.4339328    -1.1912012    -1.6432391
C           5.8936239     0.4330677    -0.2779084
H           6.9390567     0.4978815    -0.5650607
20
302_C8H10O2_0-4-15-16 (135,) energy =    -461.2855430
C           2.2118293    -2.4958302    -0.4337309
H           1.2739509    -2.0142935    -0.1487287
H           2.7189903    -2.8615094     0.4684138
H           2.0094092    -3.3404622    -1.0975092
O           3.0572475    -1.6172044    -1.1780987
C           5.3910504     1.3102527     0.6633307
H           6.0061134     2.0749141     1.1293149
C           4.0497449     1.1876760     1.0379533
H           3.6415577     1.8644473     1.7799812
C           3.2303552     0.2198345     0.4482567
O           1.8958092     0.0738673     0.7221612
C           1.3052526     0.9492667     1.6680727
H           0.2533616     0.6625821     1.7241168
H           1.3785311     1.9970328     1.3482428
H           1.7632236     0.8431029     2.6605968
C           3.7811725    -0.6647444    -0.5087019
C           5.1176233    -0.5177837    -0.8794856
H           5.5047864    -1.1995771    -1.6306011
C           5.9253629     0.4649359    -0.3045237
H           6.9643022     0.5575745    -0.6072838
20
302_C8H10O2_0-4-15-16 (150,) energy =    -461.2847450
C           2.1286507    -2.4298086    -0.4933384
H           1.1852771    -1.8796457    -0.5004367
H           2.3893658    -2.6830133     0.5409500
H           2.0249510    -3.3505164    -1.0738104
O           3.1758133    -1.7005978    -1.1324953
C           5.3790183     1.3767038     0.6268858
H           5.9673022     2.1748102     1.0705219
C           4.0455735     1.2122550     1.0102446
H           3.6154487     1.8923099     1.7366046
C           3.2557057     0.2012147     0.4524707
O           1.9264648     0.0260767     0.7445226
C           1.3256556     0.8934964     1.6902938
H           0.2851870     0.5724656     1.7704838
H           1.3566481     1.9391833     1.3566275
H           1.8057316     0.8159180     2.6750355
C           3.8325564    -0.6899718    -0.4839648
C           5.1620444    -0.4981179    -0.8666115
H           5.5699603    -1.1860398    -1.6008946
C           5.9368842     0.5260374    -0.3229623
H           6.9695975     0.6472312    -0.6368342
20
302_C8H10O2_0-4-15-16 (165,) energy =    -461.2838797
C           2.0769392    -2.3986425    -0.5411700
H           1.2118923    -1.7577936    -0.7277360
H           2.1321996    -2.6242534     0.5289606
H           1.9727902    -3.3306086    -1.1029142
O           3.2863060    -1.8171590    -1.0220552
C           5.3722601     1.4264014     0.5782173
H           5.9357831     2.2639244     0.9790461
C           4.0492811     1.2320873     0.9807274
H           3.6031847     1.9265765     1.6832483
C           3.2877458     0.1687616     0.4828659
O           1.9721929    -0.0393721     0.8206897
C           1.3625048     0.8528411     1.7362795
H           0.3365913     0.4993717     1.8581528
H           1.3471304     1.8811980     1.3511726
H           1.8670271     0.8421149     2.7118142
C           3.8819414    -0.7400055    -0.4264286
C           5.2040032    -0.5200734    -0.8255761
H           5.6277010    -1.2261487    -1.5331912
C           5.9501544     0.5497143    -0.3353483
H           6.9758897     0.6880651    -0.6646624
20
302_C8H10O2_0-4-15-16 (180,) energy =    -461.2834997
C           2.0401201    -2.3687523    -0.6038760
H           1.2907698    -1.6448892    -0.9365343
H           1.8929535    -2.5736251     0.4603247
H           1.9307262    -3.2955024    -1.1729598
O           3.3665127    -1.9295393    -0.8834147
C           5.3421127     1.4703289     0.5226015
H           5.8799658     2.3465711     0.8726365
C           4.0289267     1.2536792     0.9443433
H           3.5664548     1.9666323     1.6170894
C           3.3012210     0.1372134     0.5166113
O           2.0073607    -0.1115937     0.9090082
C           1.3808977     0.8061919     1.7869193
H           0.3762961     0.4145917     1.9595169
H           1.3070212     1.8078544     1.3425286
H           1.9108007     0.8772368     2.7463031
C           3.9129136    -0.7897367    -0.3625720
C           5.2294655    -0.5539256    -0.7727873
H           5.6722035    -1.2812562    -1.4464193
C           5.9449414     0.5605223    -0.3410702
H           6.9655768     0.7105526    -0.6809091
