20
302_C8H10O2_15-9-10-11 (-165,) energy =    -461.2875458
C           2.7597922    -2.9146054    -0.9472197
H           3.5648235    -3.4902240    -0.4702506
H           3.0597341    -2.6627949    -1.9737358
H           1.8520490    -3.5204136    -0.9758161
O           2.4296836    -1.7581040    -0.1994176
C           5.2536271     1.2248757     0.4915408
H           5.9618663     2.0245157     0.6885560
C           3.9473275     1.3234168     0.9908689
H           3.6598716     2.1942272     1.5696492
C           3.0211132     0.3099797     0.7547601
O           1.7299530     0.3138128     1.1978568
C           1.1991396     1.5380151     1.6749834
H           0.1349058     1.3585345     1.8406174
H           1.3258295     2.3443916     0.9402539
H           1.6609946     1.8432036     2.6241982
C           3.4042464    -0.8225515    -0.0085863
C           4.7063532    -0.9107562    -0.4974598
H           5.0093466    -1.7723563    -1.0815106
C           5.6311516     0.1131089    -0.2479016
H           6.6404649     0.0269462    -0.6400922
20
302_C8H10O2_15-9-10-11 (-150,) energy =    -461.2862889
C           2.7430399    -2.8940560    -0.9440556
H           3.5699358    -3.4808969    -0.5213903
H           2.9974130    -2.6072826    -1.9737223
H           1.8372131    -3.5033281    -0.9536688
O           2.4410177    -1.7644570    -0.1447324
C           5.2799046     1.2145750     0.5134745
H           5.9930495     2.0122731     0.7003330
C           3.9990802     1.2857476     1.0761259
H           3.7289598     2.1338103     1.6967268
C           3.0695477     0.2721186     0.8546709
O           1.8031682     0.2626827     1.3698954
C           1.1848080     1.5171888     1.6111404
H           0.1263182     1.3044635     1.7770423
H           1.2962506     2.1888018     0.7500686
H           1.5883929     2.0120900     2.5053217
C           3.4184589    -0.8301091     0.0350475
C           4.6986979    -0.8947625    -0.5155602
H           4.9787400    -1.7335839    -1.1426663
C           5.6272103     0.1271235    -0.2771835
H           6.6173087     0.0604216    -0.7191109
20
302_C8H10O2_15-9-10-11 (-135,) energy =    -461.2848630
C           2.7036967    -2.8376971    -0.9306941
H           3.5418068    -3.4382159    -0.5517866
H           2.9235723    -2.5260200    -1.9610772
H           1.7952007    -3.4430042    -0.9242784
O           2.4345611    -1.7276153    -0.0928385
C           5.3153120     1.2152381     0.5532589
H           6.0407987     2.0019967     0.7386934
C           4.0587003     1.2721309     1.1665671
H           3.8136047     2.0952044     1.8308104
C           3.1145453     0.2722475     0.9464469
O           1.8758405     0.2595496     1.5336495
C           1.1523914     1.4833435     1.5358658
H           0.1286768     1.2295148     1.8211474
H           1.1529746     1.9471035     0.5411919
H           1.5511144     2.2017744     2.2649994
C           3.4233116    -0.8048138     0.0814883
C           4.6833884    -0.8593432    -0.5191134
H           4.9357924    -1.6792513    -1.1819796
C           5.6246629     0.1501424    -0.2846508
H           6.5971580     0.0922886    -0.7654893
20
302_C8H10O2_15-9-10-11 (-120,) energy =    -461.2843264
C           2.6710342    -2.7751865    -0.9366634
H           3.5115958    -3.3933700    -0.5935252
H           2.8684655    -2.4405224    -1.9643501
H           1.7564649    -3.3710864    -0.9219515
O           2.4349813    -1.6832599    -0.0651425
C           5.3731968     1.2007576     0.5993396
H           6.1184551     1.9663084     0.7946548
C           4.1350961     1.2512725     1.2473077
H           3.9163563     2.0437490     1.9573736
C           3.1684208     0.2773160     1.0113782
O           1.9607066     0.2668516     1.6689265
C           1.1198099     1.3920931     1.4401337
H           0.2035178     1.2080504     2.0060066
H           0.8757439     1.4948744     0.3743981
H           1.5735077     2.3279819     1.7924565
C           3.4395574    -0.7784124     0.1115803
C           4.6837271    -0.8300552    -0.5251487
H           4.9097168    -1.6335242    -1.2170759
C           5.6428366     0.1592299    -0.2830042
H           6.6021244     0.1037693    -0.7901799
20
302_C8H10O2_15-9-10-11 (-105,) energy =    -461.2846925
C           2.5954363    -2.6756802    -0.8993625
H           3.4317853    -3.3173589    -0.5912443
H           2.7711375    -2.3257497    -1.9258347
H           1.6691323    -3.2525291    -0.8693967
O           2.4079123    -1.5952677    -0.0014027
C           5.4255378     1.2117938     0.6438032
H           6.1929655     1.9561394     0.8349802
C           4.2064515     1.2723030     1.3259074
H           4.0149610     2.0485865     2.0616754
C           3.2150884     0.3236304     1.0943097
O           2.0366737     0.3361624     1.8066291
C           1.0871083     1.3061910     1.3746274
H           0.2295109     1.2187967     2.0461148
H           0.7622353     1.1127670     0.3435608
H           1.4918517     2.3256362     1.4358239
C           3.4381709    -0.7175230     0.1665064
C           4.6624670    -0.7800705    -0.5074014
H           4.8547588    -1.5729096    -1.2214873
C           5.6473917     0.1843873    -0.2686459
H           6.5916100     0.1201312    -0.8025123
20
302_C8H10O2_15-9-10-11 (-90,) energy =    -461.2855126
C           2.5309794    -2.5857487    -0.8761597
H           3.3574492    -3.2511666    -0.5934077
H           2.6930385    -2.2278576    -1.9020347
H           1.5913879    -3.1396886    -0.8320400
O           2.3910183    -1.5112333     0.0380688
C           5.4966591     1.2018399     0.6668937
H           6.2882633     1.9212409     0.8549481
C           4.2903032     1.2877880     1.3695307
H           4.1266690     2.0580661     2.1178790
C           3.2699563     0.3704570     1.1421545
O           2.1141336     0.4145986     1.8896297
C           1.0575733     1.1690052     1.2993026
H           0.2258831     1.1410994     2.0075690
H           0.7378016     0.7281787     0.3466563
H           1.3581708     2.2124530     1.1320542
C           3.4490784    -0.6636773     0.1968013
C           4.6565536    -0.7488481    -0.5029867
H           4.8152417    -1.5358044    -1.2318137
C           5.6725232     0.1838452    -0.2655134
H           6.6050221     0.1016563    -0.8171929
20
302_C8H10O2_15-9-10-11 (-75,) energy =    -461.2862083
C           2.4817326    -2.5024530    -0.8598941
H           3.2971321    -3.1838768    -0.5838399
H           2.6411165    -2.1485641    -1.8873813
H           1.5313098    -3.0366126    -0.8059762
O           2.3733134    -1.4243690     0.0550510
C           5.5666264     1.1855037     0.6916158
H           6.3833700     1.8747672     0.8850538
C           4.3655435     1.3070600     1.3975771
H           4.2279637     2.0769572     2.1511350
C           3.3105150     0.4305233     1.1652442
O           2.1696868     0.5331182     1.9273631
C           1.0248870     1.0449183     1.2440880
H           0.2246125     1.0937255     1.9864953
H           0.7209994     0.3870412     0.4228981
H           1.2191429     2.0531937     0.8534311
C           3.4524800    -0.5997233     0.2079205
C           4.6508546    -0.7138822    -0.5024197
H           4.7773481    -1.4970624    -1.2414844
C           5.7015786     0.1778190    -0.2582702
H           6.6271502     0.0708850    -0.8172518
20
302_C8H10O2_15-9-10-11 (-60,) energy =    -461.2860313
C           2.4621272    -2.4309801    -0.8656396
H           3.2676667    -3.1245608    -0.5912243
H           2.6257422    -2.0772962    -1.8924133
H           1.5040956    -2.9515009    -0.8121825
O           2.3695051    -1.3534590     0.0516567
C           5.6330707     1.1648990     0.7169651
H           6.4704275     1.8253425     0.9225134
C           4.4310405     1.3256457     1.4106260
H           4.3103352     2.1012947     2.1608862
C           3.3428585     0.4900336     1.1685937
O           2.2137970     0.6749236     1.9277649
C           0.9929940     0.9387009     1.2335332
H           0.2622674     1.1922315     2.0053477
H           0.6493821     0.0677034     0.6701728
H           1.1084174     1.7929301     0.5526020
C           3.4602957    -0.5410768     0.2074567
C           4.6586298    -0.6865200    -0.4980646
H           4.7610542    -1.4699812    -1.2403781
C           5.7398722     0.1633051    -0.2430541
H           6.6637580     0.0284805    -0.7985904
20
302_C8H10O2_15-9-10-11 (-45,) energy =    -461.2853863
C           2.4339750    -2.3474398    -0.8924010
H           3.2133830    -3.0721444    -0.6225243
H           2.6213940    -1.9796828    -1.9101145
H           1.4593299    -2.8382381    -0.8604063
O           2.3639167    -1.2854406     0.0439516
C           5.6867189     1.1484977     0.7412157
H           6.5392158     1.7863042     0.9558805
C           4.4795128     1.3530387     1.4110704
H           4.3685979     2.1422949     2.1483965
C           3.3659530     0.5511461     1.1595902
O           2.2452583     0.8141040     1.9028418
C           0.9654016     0.8198884     1.2688915
H           0.3106572     1.3843141     1.9381860
H           0.5740656    -0.1903706     1.1316225
H           1.0074189     1.3255822     0.2959770
C           3.4699378    -0.4934746     0.2110960
C           4.6752482    -0.6786489    -0.4739173
H           4.7642646    -1.4724350    -1.2068486
C           5.7793164     0.1371125    -0.2103773
H           6.7068166    -0.0313474    -0.7502638
20
302_C8H10O2_15-9-10-11 (-30,) energy =    -461.2845826
C           2.4244251    -2.2893064    -0.9346661
H           3.1737846    -3.0339348    -0.6349819
H           2.6557245    -1.9342621    -1.9479339
H           1.4360029    -2.7531474    -0.9326473
O           2.3517973    -1.2199570    -0.0080693
C           5.7212867     1.1362529     0.7530787
H           6.5849604     1.7537509     0.9821733
C           4.5024311     1.3872614     1.3817695
H           4.3934910     2.1952501     2.0987705
C           3.3690840     0.6148634     1.1152540
O           2.2496788     0.9621282     1.8212819
C           0.9401670     0.7426226     1.2996995
H           0.2836784     1.3748445     1.9035421
H           0.6334806    -0.3016581     1.3900482
H           0.8696388     1.0481981     0.2493567
C           3.4708397    -0.4492286     0.1872182
C           4.6919217    -0.6811595    -0.4552860
H           4.7774929    -1.4911168    -1.1705818
C           5.8129539     0.1043327    -0.1764057
H           6.7498476    -0.1023333    -0.6856551
20
302_C8H10O2_15-9-10-11 (-15,) energy =    -461.2838157
C           2.4067616    -2.2403554    -0.9662293
H           3.1140746    -3.0036165    -0.6152253
H           2.6982105    -1.9172424    -1.9746869
H           1.4034514    -2.6697730    -1.0020852
O           2.3275450    -1.1481299    -0.0680148
C           5.7420210     1.1238583     0.7638465
H           6.6146688     1.7237362     1.0054673
C           4.5116571     1.4271646     1.3429778
H           4.4034814     2.2581192     2.0333431
C           3.3620095     0.6818340     1.0622627
O           2.2423996     1.1088718     1.7209228
C           0.9252609     0.6970441     1.3643471
H           0.2643195     1.3344330     1.9574742
H           0.7430193    -0.3518896     1.6103525
H           0.7240443     0.8561903     0.2999265
C           3.4628281    -0.4097916     0.1656075
C           4.7002560    -0.6986616    -0.4207981
H           4.7838147    -1.5313684    -1.1095965
C           5.8358741     0.0591857    -0.1276645
H           6.7827374    -0.1923960    -0.5964689
20
302_C8H10O2_15-9-10-11 (0,) energy =    -461.2835000
C           2.3878078    -2.1985170    -1.0142672
H           3.0421589    -2.9767296    -0.5989763
H           2.7504556    -1.9197302    -2.0127801
H           1.3718275    -2.5900004    -1.0973070
O           2.2997461    -1.0752696    -0.1563059
C           5.7459710     1.1141889     0.7678231
H           6.6243098     1.6996075     1.0238632
C           4.5032161     1.4674670     1.2883766
H           4.3920623     2.3216278     1.9493235
C           3.3441193     0.7441074     0.9873352
O           2.2159891     1.2327380     1.5852711
C           0.9227790     0.6569826     1.4221979
H           0.2630154     1.2847403     2.0266233
H           0.8843853    -0.3727467     1.7887561
H           0.5938574     0.6787576     0.3793982
C           3.4493997    -0.3770703     0.1280804
C           4.7026994    -0.7237134    -0.3895732
H           4.7897669    -1.5805891    -1.0475641
C           5.8471014     0.0121229    -0.0761405
H           6.8048581    -0.2831934    -0.4945346
20
302_C8H10O2_15-9-10-11 (15,) energy =    -461.2838157
C           2.3862465    -2.1630331    -1.0690803
H           2.9846760    -2.9500868    -0.5907910
H           2.8183382    -1.9303669    -2.0515397
H           1.3629530    -2.5200730    -1.2021566
O           2.2897094    -1.0090502    -0.2535929
C           5.7451258     1.1139386     0.7783135
H           6.6243418     1.6895686     1.0528475
C           4.4892869     1.5092475     1.2341526
H           4.3686281     2.3844948     1.8651670
C           3.3297835     0.7997985     0.9051831
O           2.1820594     1.3281002     1.4280034
C           0.9477999     0.6166041     1.4724254
H           0.2916904     1.2359581     2.0895378
H           1.0626354    -0.3673095     1.9388377
H           0.5098438     0.4930869     0.4789834
C           3.4464038    -0.3484048     0.0843168
C           4.7136170    -0.7447074    -0.3580099
H           4.8099618    -1.6238087    -0.9846870
C           5.8591036    -0.0226324    -0.0169006
H           6.8280664    -0.3538879    -0.3788537
20
302_C8H10O2_15-9-10-11 (30,) energy =    -461.2845826
C           2.3854876    -2.1449943    -1.1272106
H           2.9343551    -2.9384135    -0.6023306
H           2.8742733    -1.9465012    -2.0902848
H           1.3599086    -2.4742925    -1.3057581
O           2.2833654    -0.9701496    -0.3419183
C           5.7306440     1.1036444     0.7978949
H           6.6080444     1.6711278     1.0942795
C           4.4628494     1.5316452     1.1895466
H           4.3301430     2.4246654     1.7926267
C           3.3098779     0.8304099     0.8275865
O           2.1347042     1.3787268     1.2640488
C           0.9873058     0.5729440     1.5272464
H           0.3318281     1.2013909     2.1361078
H           1.2505322    -0.3284614     2.0926988
H           0.4723313     0.2819420     0.6091679
C           3.4407824    -0.3385927     0.0400390
C           4.7179417    -0.7732491    -0.3309071
H           4.8276805    -1.6697993    -0.9302158
C           5.8585880    -0.0588978     0.0433530
H           6.8371893    -0.4162528    -0.2639822
20
302_C8H10O2_15-9-10-11 (45,) energy =    -461.2853864
C           2.3721302    -2.1214221    -1.1945004
H           2.8830342    -2.9236673    -0.6454182
H           2.9007454    -1.9389934    -2.1393776
H           1.3465928    -2.4281294    -1.4090826
O           2.2687866    -0.9391849    -0.4191686
C           5.7034395     1.0898581     0.8213915
H           6.5781652     1.6475911     1.1430055
C           4.4269766     1.5441182     1.1562859
H           4.2838198     2.4500427     1.7373889
C           3.2832247     0.8517000     0.7578753
O           2.0810793     1.4090430     1.1067085
C           1.0340747     0.5724620     1.6005058
H           0.3500802     1.2419717     2.1288316
H           1.4222433    -0.1741134     2.3047851
H           0.5045925     0.0626677     0.7928107
C           3.4252976    -0.3299935    -0.0070430
C           4.7075573    -0.7929938    -0.3196627
H           4.8283155    -1.7003636    -0.9004418
C           5.8417789    -0.0868619     0.0912085
H           6.8267802    -0.4629365    -0.1703933
20
302_C8H10O2_15-9-10-11 (60,) energy =    -461.2860314
C           2.3759297    -2.1163504    -1.2864903
H           2.8639961    -2.9358990    -0.7421989
H           2.9341288    -1.9150476    -2.2101511
H           1.3549034    -2.4089345    -1.5385198
O           2.2589331    -0.9516315    -0.4859755
C           5.6619592     1.0617518     0.8565185
H           6.5291247     1.6148451     1.2054116
C           4.3758451     1.5260557     1.1432435
H           4.2175086     2.4381120     1.7108366
C           3.2471537     0.8371663     0.7045476
O           2.0178572     1.3840609     0.9787309
C           1.0920824     0.5807540     1.7133031
H           0.2498602     1.2369913     1.9455864
H           1.5416502     0.2265104     2.6508999
H           0.7444844    -0.2752924     1.1298388
C           3.4077968    -0.3497275    -0.0479731
C           4.6963634    -0.8213101    -0.3166105
H           4.8346694    -1.7317458    -0.8887376
C           5.8177133    -0.1171900     0.1340241
H           6.8097885    -0.4984302    -0.0913449
20
302_C8H10O2_15-9-10-11 (75,) energy =    -461.2862083
C           2.3793235    -2.1288011    -1.3595258
H           2.8635875    -2.9497107    -0.8136621
H           2.9488569    -1.9204472    -2.2747538
H           1.3627784    -2.4236489    -1.6264298
O           2.2480419    -0.9690979    -0.5539298
C           5.6094986     1.0312193     0.8990513
H           6.4651777     1.5784687     1.2836035
C           4.3136983     1.4955836     1.1461191
H           4.1369758     2.4056188     1.7119249
C           3.2060164     0.8097897     0.6582149
O           1.9490182     1.3322177     0.8578552
C           1.1401087     0.6289300     1.8014730
H           0.2002881     1.1823660     1.8680737
H           1.6190486     0.6072556     2.7899636
H           0.9375932    -0.3953833     1.4709065
C           3.3890727    -0.3684924    -0.1008269
C           4.6849379    -0.8350539    -0.3390734
H           4.8441277    -1.7378052    -0.9181084
C           5.7886080    -0.1346416     0.1610300
H           6.7885433    -0.5103451    -0.0379176
20
302_C8H10O2_15-9-10-11 (90,) energy =    -461.2855126
C           2.4140051    -2.1597861    -1.4459489
H           2.9011300    -2.9774935    -0.8974665
H           2.9953506    -1.9382166    -2.3507839
H           1.4064137    -2.4676367    -1.7316332
O           2.2524293    -1.0079159    -0.6353505
C           5.5528160     0.9997298     0.9385818
H           6.3921332     1.5459776     1.3589277
C           4.2459617     1.4490562     1.1545113
H           4.0461648     2.3493486     1.7286960
C           3.1619775     0.7621825     0.6183520
O           1.8833043     1.2503372     0.7709746
C           1.1806663     0.7243473     1.8950603
H           0.2051131     1.2165775     1.9066397
H           1.7093724     0.9424154     2.8331595
H           1.0388900    -0.3599665     1.8040664
C           3.3763796    -0.3989560    -0.1568838
C           4.6837324    -0.8451094    -0.3730483
H           4.8703435    -1.7332208    -0.9664311
C           5.7639932    -0.1450617     0.1760196
H           6.7733700    -0.5050957    -0.0034300
20
302_C8H10O2_15-9-10-11 (105,) energy =    -461.2846925
C           2.4635613    -2.1963497    -1.5407873
H           2.9621821    -3.0144493    -1.0031469
H           3.0522384    -1.9420578    -2.4323940
H           1.4677454    -2.5217074    -1.8476832
O           2.2624280    -1.0670294    -0.7083324
C           5.4934342     0.9677469     0.9721446
H           6.3143179     1.5193775     1.4209412
C           4.1748320     1.3874990     1.1725774
H           3.9533525     2.2725450     1.7627204
C           3.1133624     0.6927121     0.6007194
O           1.8162962     1.1341530     0.7384494
C           1.2156017     0.8418987     1.9966283
H           0.2135601     1.2767894     1.9685451
H           1.7793177     1.2859629     2.8284109
H           1.1368694    -0.2416115     2.1574381
C           3.3635107    -0.4457078    -0.1968018
C           4.6844838    -0.8575770    -0.4026242
H           4.8985596    -1.7271687    -1.0137519
C           5.7408748    -0.1524239     0.1839305
H           6.7602079    -0.4880945     0.0137778
20
302_C8H10O2_15-9-10-11 (120,) energy =    -461.2843265
C           2.5090149    -2.2304359    -1.6295964
H           3.0250512    -3.0507314    -1.1119698
H           3.0961886    -1.9369991    -2.5102487
H           1.5234632    -2.5720726    -1.9516661
O           2.2743356    -1.1308113    -0.7673820
C           5.4454862     0.9235125     0.9982743
H           6.2494789     1.4796708     1.4714651
C           4.1166625     1.3067392     1.2047185
H           3.8811333     2.1673341     1.8243789
C           3.0730353     0.6070883     0.6046624
O           1.7587265     0.9867725     0.7441769
C           1.2400721     0.9520729     2.0690097
H           0.1908199     1.2471257     1.9935247
H           1.7592259     1.6523564     2.7368428
H           1.3049157    -0.0583383     2.4942467
C           3.3558741    -0.5002536    -0.2270044
C           4.6873058    -0.8722609    -0.4389294
H           4.9235766    -1.7177413    -1.0751020
C           5.7250266    -0.1635031     0.1759657
H           6.7527280    -0.4701094     0.0017944
20
302_C8H10O2_15-9-10-11 (135,) energy =    -461.2848630
C           2.5426861    -2.2537043    -1.7119958
H           3.0767575    -3.0785548    -1.2205005
H           3.1226594    -1.9205638    -2.5833576
H           1.5642939    -2.6061980    -2.0441081
O           2.2855828    -1.1872086    -0.8157753
C           5.4129633     0.8631948     1.0265838
H           6.2040792     1.4140387     1.5270284
C           4.0758761     1.2103411     1.2504463
H           3.8312255     2.0325037     1.9159674
C           3.0462993     0.5198428     0.6157212
O           1.7196070     0.8253199     0.7767577
C           1.2698500     1.0588045     2.1049945
H           0.1781479     1.0510236     2.0609295
H           1.5977562     2.0337737     2.4905748
H           1.6162898     0.2710372     2.7860620
C           3.3544301    -0.5542913    -0.2531319
C           4.6918819    -0.8884926    -0.4790620
H           4.9450334    -1.7067915    -1.1436492
C           5.7165405    -0.1820033     0.1619903
H           6.7501873    -0.4607723    -0.0227293
20
302_C8H10O2_15-9-10-11 (150,) energy =    -461.2862889
C           2.5697049    -2.2704230    -1.7644566
H           3.1315507    -3.0967537    -1.3076352
H           3.1301974    -1.8921525    -2.6302133
H           1.5970793    -2.6376291    -2.0975929
O           2.2954716    -1.2427880    -0.8291458
C           5.3878472     0.8233796     1.0505476
H           6.1683793     1.3776011     1.5637812
C           4.0438114     1.1226514     1.3081140
H           3.7915505     1.9069343     2.0142282
C           3.0255055     0.4291450     0.6581509
O           1.6919727     0.6623088     0.8488062
C           1.2868972     1.1487671     2.1190582
H           0.2011945     1.0337494     2.1537167
H           1.5323634     2.2114819     2.2524266
H           1.7458558     0.5713664     2.9320077
C           3.3548140    -0.6027548    -0.2557489
C           4.6963601    -0.8888112    -0.5099709
H           4.9610364    -1.6746730    -1.2083051
C           5.7111876    -0.1770962     0.1434723
H           6.7496905    -0.4184742    -0.0646722
20
302_C8H10O2_15-9-10-11 (165,) energy =    -461.2875455
C           2.5850954    -2.2817378    -1.7942862
H           3.1823687    -3.1057686    -1.3803513
H           3.1132276    -1.8559422    -2.6583946
H           1.6162932    -2.6668116    -2.1182634
O           2.3026285    -1.2969396    -0.8164807
C           5.3724289     0.7967066     1.0672478
H           6.1469735     1.3587576     1.5811286
C           4.0257006     1.0404391     1.3709738
H           3.7724016     1.7891507     2.1133915
C           3.0146362     0.3343448     0.7228893
O           1.6786454     0.5002857     0.9488096
C           1.2888401     1.2142592     2.1091602
H           0.2040442     1.1088852     2.1752167
H           1.5393862     2.2817487     2.0373844
H           1.7542366     0.7977810     3.0125264
C           3.3562054    -0.6474344    -0.2423133
C           4.6981734    -0.8793837    -0.5383175
H           4.9709348    -1.6269310    -1.2745636
C           5.7059421    -0.1575653     0.1168040
H           6.7461139    -0.3550725    -0.1259312
20
302_C8H10O2_15-9-10-11 (180,) energy =    -461.2880381
C           2.7644465    -2.9258431    -0.9465992
H           3.5405528    -3.4930518    -0.4146732
H           3.1131141    -2.7120061    -1.9662688
H           1.8519754    -3.5231588    -0.9959169
O           2.4145220    -1.7412381    -0.2538713
C           5.2394091     1.2329878     0.4702926
H           5.9492489     2.0288533     0.6767970
C           3.9114759     1.3636340     0.9016838
H           3.6108075     2.2576222     1.4361322
C           2.9829648     0.3562648     0.6484280
O           1.6715214     0.3856679     1.0238880
C           1.2095415     1.5253983     1.7261563
H           0.1513623     1.3447972     1.9248045
H           1.3148429     2.4411626     1.1284203
H           1.7398276     1.6573150     2.6792780
C           3.3900599    -0.8089140    -0.0515922
C           4.7119744    -0.9273659    -0.4751719
H           5.0331181    -1.8134752    -1.0108448
C           5.6369723     0.0938205    -0.2141037
H           6.6630569    -0.0173447    -0.5526867
