37
127_C15H19N3_4-6-13-12 (-165,) energy =    -747.2814729
C           5.0460118     1.9993880     1.8465332
H           5.6972045     2.7979188     2.1925434
C           5.2385519     0.6887909     2.2724071
H           6.0449669     0.4350519     2.9546516
C           4.3813738    -0.3054547     1.8114536
H           4.5795487    -1.3248667     2.1168934
C           3.3210232    -0.0557635     0.9174940
C           3.1579287     1.2886933     0.4465923
C           4.0292208     2.2779789     0.9380893
H           3.9111895     3.2954506     0.5822172
C           0.6778642    -2.2370757    -0.1881429
H          -0.1021975    -2.4889483    -0.8942953
N           1.4747239    -1.1421948    -0.3642900
C           2.3426496    -1.1255538     0.6414997
N           2.0810863    -2.1925298     1.5060072
C           2.5754765    -2.4854100     2.8469533
H           1.8224349    -3.0847431     3.3638022
H           2.7293170    -1.5614260     3.4073514
H           3.5134050    -3.0510183     2.8273219
C           1.0276293    -2.8955068     0.9591062
H           0.6377481    -3.7809425     1.4396782
C           0.3772535     2.6833780    -2.5421815
H           0.9945949     3.4226418    -3.0749216
H          -0.6057330     2.6853124    -3.0299983
C           1.0319364     1.2998115    -2.6448395
H           1.2288538     1.0422882    -3.6937742
H           0.3654785     0.5342385    -2.2328200
C           2.3424625     1.2433032    -1.8586631
H           2.7342060     0.2274342    -1.8698805
H           3.0933479     1.9101883    -2.3278409
N           2.1316214     1.6482873    -0.4573950
C           1.6044703     3.0101220    -0.3594104
H           2.2895097     3.7572844    -0.8093968
H           1.4951032     3.2647851     0.6997511
C           0.2497681     3.1024938    -1.0719232
H          -0.4617389     2.4439309    -0.5579770
H          -0.1311710     4.1289147    -0.9906722
37
127_C15H19N3_4-6-13-12 (-150,) energy =    -747.2851477
C           5.1184978     1.9326666     1.7729780
H           5.7842082     2.7235853     2.1088682
C           5.3097900     0.6190690     2.1927831
H           6.1273026     0.3601890     2.8597195
C           4.4369308    -0.3684271     1.7443522
H           4.6125908    -1.3947739     2.0495481
C           3.3652183    -0.0968329     0.8733550
C           3.1925457     1.2465545     0.4195539
C           4.0808011     2.2283499     0.8921546
H           3.9563567     3.2506028     0.5511571
C           0.9020698    -2.4210256    -0.3518012
H           0.2437032    -2.7777904    -1.1326794
N           1.7119985    -1.3350920    -0.5408794
C           2.4017339    -1.1751573     0.5810153
N           2.0203434    -2.1306425     1.5181560
C           2.3448836    -2.2350288     2.9354964
H           1.4784794    -2.6437504     3.4616942
H           2.5685947    -1.2478052     3.3418058
H           3.2034431    -2.8927659     3.1117094
C           1.0697316    -2.9245112     0.9108299
H           0.6106901    -3.7502422     1.4347284
C           0.3061536     2.6743100    -2.4501537
H           0.8854141     3.4585315    -2.9607760
H          -0.6862591     2.6621949    -2.9183229
C           1.0088289     1.3221614    -2.6301736
H           1.1940510     1.1218897    -3.6935464
H           0.3774764     0.5128338    -2.2460188
C           2.3356268     1.2772780    -1.8706613
H           2.7623586     0.2777375    -1.9359330
H           3.0517051     1.9957343    -2.3177996
N           2.1287060     1.6028318    -0.4468445
C           1.5645266     2.9435099    -0.2771519
H           2.2179824     3.7299667    -0.7063245
H           1.4698953     3.1479452     0.7944634
C           0.1940659     3.0242660    -0.9602958
H          -0.4864738     2.3211938    -0.4634111
H          -0.2180481     4.0330693    -0.8271380
37
127_C15H19N3_4-6-13-12 (-135,) energy =    -747.2873782
C           5.1972575     1.9000931     1.7304860
H           5.8740276     2.6854080     2.0575139
C           5.3865360     0.5850221     2.1483598
H           6.2110638     0.3228310     2.8052679
C           4.5013752    -0.3975756     1.7107473
H           4.6564397    -1.4266245     2.0229788
C           3.4217038    -0.1092589     0.8582749
C           3.2431736     1.2319978     0.4142803
C           4.1448931     2.2086419     0.8704385
H           4.0186118     3.2337542     0.5381628
C           1.1468985    -2.5748771    -0.4552943
H           0.6201822    -3.0347664    -1.2808653
N           1.9780294    -1.5029980    -0.6465323
C           2.4690539    -1.1945465     0.5450862
N           1.9557465    -2.0405720     1.5152485
C           2.1197126    -1.9869697     2.9613719
H           1.1675486    -2.2370163     3.4372718
H           2.4106231    -0.9800139     3.2617142
H           2.8830162    -2.6927244     3.3083568
C           1.1137175    -2.9224103     0.8699730
H           0.5769661    -3.6875071     1.4117770
C           0.2696882     2.6540333    -2.3693144
H           0.8267390     3.4491372    -2.8875943
H          -0.7343109     2.6346699    -2.8117635
C           0.9839039     1.3123834    -2.5809180
H           1.1439088     1.1245704    -3.6505098
H           0.3702804     0.4912962    -2.1913761
C           2.3307938     1.2768189    -1.8563656
H           2.7684776     0.2834415    -1.9427751
H           3.0243680     2.0109756    -2.3132316
N           2.1523789     1.5827596    -0.4232987
C           1.5797130     2.9162156    -0.2252779
H           2.2155272     3.7129518    -0.6616224
H           1.5094232     3.1088393     0.8505234
C           0.1921404     2.9901553    -0.8739211
H          -0.4695642     2.2765586    -0.3664423
H          -0.2262675     3.9936340    -0.7217346
37
127_C15H19N3_4-6-13-12 (-120,) energy =    -747.2883381
C           5.2249972     1.8671867     1.7059331
H           5.8970804     2.6508455     2.0465536
C           5.4447248     0.5418187     2.0742045
H           6.2860433     0.2723443     2.7063284
C           4.5654227    -0.4400314     1.6203773
H           4.7284494    -1.4774800     1.9014725
C           3.4659893    -0.1326465     0.8042179
C           3.2521923     1.2169824     0.4139489
C           4.1479678     2.1932236     0.8827827
H           3.9993112     3.2281194     0.5928834
C           1.3736378    -2.7142196    -0.5929176
H           0.9759710    -3.2600243    -1.4381898
N           2.2381055    -1.6626864    -0.7635620
C           2.5312175    -1.2273251     0.4521983
N           1.8739645    -1.9729110     1.4113407
C           1.8701871    -1.7872267     2.8546165
H           0.8466201    -1.8721641     3.2311046
H           2.2538081    -0.7950738     3.0927434
H           2.4946614    -2.5363152     3.3546779
C           1.1332211    -2.9241730     0.7401503
H           0.5137711    -3.6341735     1.2685922
C           0.1681895     2.6331097    -2.2525044
H           0.7029496     3.4306417    -2.7899723
H          -0.8518177     2.6114696    -2.6564086
C           0.8787107     1.2946014    -2.4940728
H           0.9985849     1.1091222    -3.5691563
H           0.2805107     0.4707314    -2.0854097
C           2.2533570     1.2634790    -1.8225613
H           2.6953034     0.2734786    -1.9305044
H           2.9231654     2.0034565    -2.3041471
N           2.1297170     1.5658136    -0.3816691
C           1.5578800     2.8956129    -0.1583203
H           2.1749914     3.6955013    -0.6147955
H           1.5259983     3.0848056     0.9199542
C           0.1467852     2.9656368    -0.7545368
H          -0.4928376     2.2484083    -0.2241173
H          -0.2696169     3.9668811    -0.5837846
37
127_C15H19N3_4-6-13-12 (-105,) energy =    -747.2887128
C           5.2459853     1.8439224     1.6907694
H           5.9021372     2.6317825     2.0522979
C           5.5256003     0.5098254     1.9781280
H           6.3967151     0.2394304     2.5679912
C           4.6650635    -0.4791897     1.5010314
H           4.8646086    -1.5242396     1.7242457
C           3.5297432    -0.1633036     0.7429900
C           3.2555311     1.1938219     0.4321156
C           4.1307466     2.1778454     0.9226241
H           3.9399596     3.2209973     0.6937021
C           1.5688406    -2.8166593    -0.7110625
H           1.2887473    -3.4379574    -1.5513527
N           2.4987100    -1.8136263    -0.8420415
C           2.6109349    -1.2650864     0.3571331
N           1.7868649    -1.8921584     1.2670278
C           1.5543422    -1.5325381     2.6567432
H           0.5560871    -1.0993056     2.7832975
H           2.2995763    -0.7991172     2.9649470
H           1.6418901    -2.4170328     3.2956262
C           1.1141829    -2.8827035     0.5803476
H           0.3938339    -3.5214234     1.0705749
C           0.0426259     2.5646670    -2.1044527
H           0.5448898     3.3681507    -2.6637458
H          -0.9924674     2.5291967    -2.4666333
C           0.7606727     1.2355180    -2.3736673
H           0.8386888     1.0492536    -3.4523049
H           0.1890180     0.4048495    -1.9405790
C           2.1627354     1.2272951    -1.7601855
H           2.6237588     0.2482885    -1.8926622
H           2.7969393     1.9800872    -2.2685456
N           2.0962104     1.5285405    -0.3143954
C           1.5113563     2.8478241    -0.0656590
H           2.1000115     3.6574939    -0.5415322
H           1.5165314     3.0333796     1.0137067
C           0.0774069     2.8982710    -0.6070098
H          -0.5319230     2.1735546    -0.0514502
H          -0.3450996     3.8939491    -0.4200595
37
127_C15H19N3_4-6-13-12 (-90,) energy =    -747.2893599
C           5.3073503     1.7991014     1.7378827
H           5.9444897     2.5951854     2.1151321
C           5.6459065     0.4658975     1.9574765
H           6.5425493     0.2055192     2.5124844
C           4.8083936    -0.5354064     1.4636451
H           5.0480422    -1.5810928     1.6371401
C           3.6442965    -0.2285482     0.7503487
C           3.3065774     1.1282599     0.5128428
C           4.1566287     2.1253324     1.0193529
H           3.9224003     3.1696362     0.8423608
C           1.7613504    -2.9275503    -0.7189154
H           1.5816907    -3.6351511    -1.5174183
N           2.7969162    -2.0248888    -0.7824807
C           2.7402821    -1.3367886     0.3469199
N           1.7030414    -1.7658107     1.1414120
C           1.2587807    -1.1747240     2.3925484
H           0.5392493    -0.3689112     2.2098933
H           2.1183261    -0.7642526     2.9253790
H           0.7907191    -1.9436555     3.0124965
C           1.0691674    -2.7825881     0.4560156
H           0.2141725    -3.2968316     0.8703203
C          -0.0301503     2.4257025    -1.9036134
H           0.4386289     3.2299883    -2.4899410
H          -1.0777682     2.3721254    -2.2248963
C           0.6961270     1.1042371    -2.1876896
H           0.7336960     0.9069244    -3.2663696
H           0.1541334     0.2701797    -1.7235964
C           2.1218365     1.1272746    -1.6313870
H           2.6030168     0.1602501    -1.7815432
H           2.7190115     1.8888961    -2.1694967
N           2.1100387     1.4384350    -0.1856369
C           1.5114840     2.7488505     0.0768098
H           2.0713736     3.5639120    -0.4233076
H           1.5520932     2.9405382     1.1542608
C           0.0580485     2.7753255    -0.4120409
H          -0.5222691     2.0499051     0.1734248
H          -0.3694636     3.7676006    -0.2191037
37
127_C15H19N3_4-6-13-12 (-75,) energy =    -747.2905561
C           5.3175091     1.8497815     1.6010722
H           5.9525553     2.6554621     1.9610408
C           5.7017348     0.5220936     1.7739678
H           6.6329951     0.2751266     2.2754725
C           4.8643319    -0.4911196     1.3066214
H           5.1365763    -1.5335880     1.4452045
C           3.6544904    -0.2019783     0.6656621
C           3.2748578     1.1503031     0.4648796
C           4.1237654     2.1595957     0.9483656
H           3.8598623     3.2009291     0.7994708
C           1.9129798    -3.0275507    -0.7257459
H           1.8262089    -3.8228626    -1.4542041
N           2.9746638    -2.1544457    -0.7414635
C           2.7742034    -1.3314171     0.2774373
N           1.6175331    -1.6433820     0.9517114
C           1.0398325    -0.9289429     2.0775302
H           0.4224380    -0.0939193     1.7313760
H           1.8402006    -0.5351911     2.7073660
H           0.4302872    -1.6174536     2.6679955
C           1.0606899    -2.7293418     0.3068977
H           0.1411009    -3.1801736     0.6508032
C          -0.1433129     2.4062874    -1.8630777
H           0.3160366     3.1875477    -2.4865936
H          -1.2011844     2.3569753    -2.1492023
C           0.5578388     1.0684778    -2.1319355
H           0.5577674     0.8391610    -3.2048191
H           0.0212377     0.2549684    -1.6266501
C           2.0017872     1.0920409    -1.6247567
H           2.4713238     0.1180328    -1.7675048
H           2.5872474     1.8309580    -2.2049107
N           2.0469000     1.4430220    -0.1882350
C           1.4645858     2.7641557     0.0592838
H           2.0171633     3.5610742    -0.4763850
H           1.5386453     2.9813320     1.1299957
C          -0.0026782     2.7952435    -0.3856184
H          -0.5754051     2.0950246     0.2373097
H          -0.4113681     3.7978440    -0.2063433
37
127_C15H19N3_4-6-13-12 (-60,) energy =    -747.2913326
C           5.3256952     1.8686297     1.6976018
H           5.9622500     2.6828438     2.0348255
C           5.7311244     0.5455994     1.8595963
H           6.6826873     0.3107067     2.3277159
C           4.8897407    -0.4782257     1.4269422
H           5.1762530    -1.5174203     1.5574970
C           3.6493474    -0.2059538     0.8366088
C           3.2598093     1.1421100     0.6207820
C           4.1113306     2.1622729     1.0767716
H           3.8378544     3.2001482     0.9223266
C           2.0863255    -3.1901904    -0.4076308
H           2.1021153    -4.0742403    -1.0312987
N           3.1408593    -2.3102507    -0.3892414
C           2.7958692    -1.3573591     0.4658463
N           1.5542441    -1.5992539     1.0084600
C           0.8500270    -0.8080598     2.0036755
H           0.1648562    -0.0991629     1.5300329
H           1.5758359    -0.2466875     2.5945578
H           0.2925217    -1.4748804     2.6671022
C           1.0962923    -2.7734032     0.4454557
H           0.1363680    -3.1908979     0.7129497
C          -0.1275992     2.3661283    -1.7689228
H           0.3542682     3.1172907    -2.4120252
H          -1.1826571     2.3272699    -2.0666359
C           0.5509239     1.0073603    -1.9846439
H           0.5575799     0.7413810    -3.0489595
H          -0.0068689     0.2215925    -1.4586145
C           1.9900635     1.0228914    -1.4635680
H           2.4440117     0.0364278    -1.5689482
H           2.5943003     1.7285408    -2.0653877
N           2.0319660     1.4225928    -0.0400720
C           1.4647075     2.7582233     0.1597540
H           2.0356089     3.5304392    -0.3925767
H           1.5295840     3.0067823     1.2242006
C           0.0034435     2.8004292    -0.3034958
H          -0.5907499     2.1328706     0.3350043
H          -0.3881906     3.8157370    -0.1620777
37
127_C15H19N3_4-6-13-12 (-45,) energy =    -747.2908288
C           5.3490383     1.8629341     1.6438527
H           5.9927040     2.6772367     1.9669631
C           5.7773775     0.5410800     1.7509567
H           6.7569688     0.3072757     2.1579076
C           4.9253301    -0.4831260     1.3447887
H           5.2274766    -1.5216691     1.4343947
C           3.6435086    -0.2149801     0.8435435
C           3.2436258     1.1339636     0.6476509
C           4.1045100     2.1541862     1.0857761
H           3.8177106     3.1918410     0.9572145
C           2.2165393    -3.3214369    -0.2343671
H           2.3045813    -4.2687653    -0.7497777
N           3.2520298    -2.4221696    -0.2090168
C           2.8080692    -1.3789767     0.4811942
N           1.5204735    -1.5910321     0.9267912
C           0.7324658    -0.7632276     1.8267751
H           0.0519996    -0.1105983     1.2742469
H           1.4018140    -0.1396497     2.4212844
H           0.1619606    -1.4111317     2.4981166
C           1.1398685    -2.8333563     0.4613166
H           0.1624537    -3.2402373     0.6767900
C          -0.1223310     2.4101323    -1.7442595
H           0.3777187     3.1630548    -2.3711303
H          -1.1736791     2.3885539    -2.0563663
C           0.5413842     1.0455932    -1.9684934
H           0.5581374     0.7925806    -3.0358497
H          -0.0341580     0.2607728    -1.4602545
C           1.9741186     1.0357603    -1.4300164
H           2.4146653     0.0434169    -1.5405101
H           2.5959071     1.7370375    -2.0188379
N           2.0079905     1.4187096    -0.0013552
C           1.4502340     2.7572631     0.2080712
H           2.0349233     3.5306093    -0.3278814
H           1.5060376     2.9919550     1.2763116
C          -0.0046098     2.8232455    -0.2717183
H          -0.6167514     2.1567374     0.3505248
H          -0.3841781     3.8419384    -0.1222969
37
127_C15H19N3_4-6-13-12 (-30,) energy =    -747.2883728
C           5.3681185     1.8587709     1.6185171
H           6.0224527     2.6695067     1.9287633
C           5.8090325     0.5371187     1.6645886
H           6.8128731     0.2996985     2.0050985
C           4.9423814    -0.4827526     1.2837951
H           5.2541825    -1.5206612     1.3305217
C           3.6232307    -0.2169381     0.8807482
C           3.2233980     1.1363025     0.7038485
C           4.0977740     2.1523939     1.1255370
H           3.8028849     3.1907230     1.0242862
C           2.2823273    -3.4137666    -0.0092940
H           2.4198883    -4.4101435    -0.4083052
N           3.3052947    -2.5044184     0.0120092
C           2.7968268    -1.3879089     0.5231821
N           1.4751524    -1.5746968     0.8851573
C           0.6223287    -0.7146455     1.6943337
H          -0.0171240    -0.0835607     1.0740330
H           1.2428546    -0.0690604     2.3171540
H           0.0062642    -1.3450410     2.3415357
C           1.1465831    -2.8670839     0.5309554
H           0.1555443    -3.2617752     0.7024141
C          -0.1093693     2.4921021    -1.6896549
H           0.4085833     3.2557990    -2.2882634
H          -1.1553634     2.4891065    -2.0198757
C           0.5448862     1.1272695    -1.9386137
H           0.5784963     0.9029601    -3.0120098
H          -0.0485705     0.3349678    -1.4636245
C           1.9680583     1.0881314    -1.3762560
H           2.3987321     0.0930599    -1.5026670
H           2.6075388     1.7946369    -1.9395746
N           1.9855608     1.4359141     0.0616599
C           1.4347744     2.7738184     0.2943626
H           2.0322317     3.5545870    -0.2160620
H           1.4786762     2.9837147     1.3684062
C          -0.0120994     2.8657528    -0.2050891
H          -0.6416459     2.1909161     0.3899568
H          -0.3839156     3.8841903    -0.0359719
37
127_C15H19N3_4-6-13-12 (-15,) energy =    -747.2833720
C           5.3802519     1.8551684     1.5542665
H           6.0381551     2.6694610     1.8470722
C           5.8423779     0.5396304     1.5387809
H           6.8699055     0.3099521     1.8063887
C           4.9701933    -0.4848140     1.1892725
H           5.2993552    -1.5177997     1.1953827
C           3.6159634    -0.2385485     0.8935699
C           3.2041564     1.1147353     0.7298483
C           4.0833421     2.1358967     1.1304946
H           3.7710014     3.1712563     1.0559106
C           2.3519866    -3.5128960     0.2104162
H           2.5318284    -4.5449068    -0.0608411
N           3.3615331    -2.5932829     0.2298707
C           2.8055667    -1.4261186     0.5467348
N           1.4547970    -1.5976323     0.8166008
C           0.5372717    -0.7182651     1.5339009
H          -0.0682108    -0.1192956     0.8525181
H           1.1021230    -0.0429070     2.1766037
H          -0.1118253    -1.3392947     2.1573654
C           1.1690857    -2.9261566     0.5783531
H           0.1685539    -3.3148577     0.7017692
C          -0.0919951     2.5358814    -1.6744409
H           0.4407743     3.3202202    -2.2319048
H          -1.1291781     2.5451080    -2.0312075
C           0.5686316     1.1804143    -1.9556678
H           0.6316552     0.9961312    -3.0353712
H          -0.0393725     0.3719586    -1.5288446
C           1.9767214     1.1167717    -1.3577925
H           2.4045037     0.1227328    -1.5033126
H           2.6342358     1.8352814    -1.8840478
N           1.9628853     1.4185657     0.0909308
C           1.4035625     2.7479628     0.3529207
H           2.0085566     3.5456614    -0.1208913
H           1.4256186     2.9248003     1.4337514
C          -0.0317504     2.8564299    -0.1755259
H          -0.6762048     2.1626848     0.3801830
H          -0.4073666     3.8687686     0.0196617
37
127_C15H19N3_4-6-13-12 (0,) energy =    -747.2755416
C           5.7473793     1.4839350     0.4781785
H           6.5872439     2.1214695     0.2141096
C           5.8488095     0.5669945     1.5240974
H           6.7617116     0.4893778     2.1080053
C           4.7710472    -0.2597960     1.8126459
H           4.8435683    -1.0035560     2.5975173
C           3.5890501    -0.2507411     1.0407917
C           3.4135480     0.8423838     0.1423277
C           4.5305129     1.6342782    -0.1802163
H           4.4284079     2.4279900    -0.9112638
C           1.7669464    -2.9514767     2.5102067
H           1.6813998    -3.6950590     3.2917493
N           2.7509613    -2.0102050     2.5248929
C           2.5472039    -1.2123240     1.4757928
N           1.4916004    -1.7091016     0.7127003
C           1.1600871    -1.4930343    -0.6947401
H           2.0623228    -1.2544081    -1.2581248
H           0.4463074    -0.6818855    -0.8287711
H           0.7384768    -2.4239992    -1.0826733
C           0.9851131    -2.7948358     1.3964567
H           0.1355062    -3.3453726     1.0191662
C          -0.2736017     2.7784657    -0.9967553
H           0.0520897     3.8177552    -0.8432391
H          -1.3170581     2.8215218    -1.3320163
C           0.6139582     2.1282010    -2.0656646
H           0.6157924     2.7281739    -2.9843441
H           0.2176226     1.1392952    -2.3303172
C           2.0553903     1.9843259    -1.5634989
H           2.6748352     1.4799548    -2.3132579
H           2.4716133     3.0014857    -1.4271186
N           2.1092412     1.2058804    -0.3217730
C           1.3040534     1.8404837     0.7464035
H           1.7323637     2.8289318     1.0019292
H           1.3691231     1.2202183     1.6432907
C          -0.1592338     2.0132396     0.3277633
H          -0.6278252     1.0252876     0.2297381
H          -0.6956375     2.5397357     1.1270351
37
127_C15H19N3_4-6-13-12 (15,) energy =    -747.2833736
C           5.7752300     1.4470465     0.4018523
H           6.6229811     2.0685194     0.1249015
C           5.8977296     0.4843262     1.4031594
H           6.8379276     0.3495215     1.9304618
C           4.8056657    -0.3168722     1.7154282
H           4.8849450    -1.0893867     2.4720189
C           3.5870462    -0.2176765     1.0171224
C           3.4139033     0.8858618     0.1339773
C           4.5391048     1.6575107    -0.2046543
H           4.4361011     2.4734227    -0.9108555
C           1.5738109    -2.7218729     2.5866185
H           1.3784424    -3.3668662     3.4332554
N           2.5764170    -1.7952045     2.6112453
C           2.5165029    -1.1393956     1.4542116
N           1.5351914    -1.6921355     0.6429768
C           1.3441985    -1.5598329    -0.7976955
H           2.2840275    -1.2703895    -1.2681919
H           0.5918261    -0.8086259    -1.0408868
H           1.0369302    -2.5327707    -1.1909295
C           0.9241710    -2.6851849     1.3801458
H           0.1069038    -3.2627346     0.9728822
C          -0.3280710     2.7357527    -0.9803959
H          -0.0553347     3.7829797    -0.7836202
H          -1.3668779     2.7415970    -1.3324727
C           0.6055545     2.1676942    -2.0568936
H           0.5960297     2.8023753    -2.9519468
H           0.2573236     1.1732240    -2.3654236
C           2.0444184     2.0623257    -1.5375070
H           2.6897859     1.6040851    -2.2948104
H           2.4249068     3.0874930    -1.3612663
N           2.1080690     1.2460103    -0.3215714
C           1.2658568     1.8159664     0.7536176
H           1.6451039     2.8168967     1.0361764
H           1.3489471     1.1791324     1.6367298
C          -0.1974032     1.9284090     0.3172322
H          -0.6074340     0.9201044     0.1734367
H          -0.7750088     2.3954181     1.1246683
37
127_C15H19N3_4-6-13-12 (30,) energy =    -747.2883728
C           5.8288041     1.3903935     0.3775284
H           6.6846201     1.9953019     0.0888022
C           5.9647300     0.3819848     1.3303721
H           6.9248061     0.1906250     1.8011687
C           4.8578263    -0.3924781     1.6638124
H           4.9424481    -1.1967650     2.3867310
C           3.6117884    -0.2031555     1.0434524
C           3.4436331     0.9116500     0.1766620
C           4.5785231     1.6617144    -0.1758131
H           4.4780485     2.5000747    -0.8558010
C           1.4290969    -2.5385717     2.6534215
H           1.1348276    -3.0929068     3.5349084
N           2.4460819    -1.6230524     2.6907391
C           2.5219673    -1.1048005     1.4692266
N           1.6075635    -1.7085128     0.6253373
C           1.5179949    -1.6298997    -0.8264242
H           2.4861073    -1.3380246    -1.2353794
H           0.7743764    -0.8965806    -1.1446206
H           1.2537930    -2.6181691    -1.2128798
C           0.9022778    -2.6152407     1.3896165
H           0.1139451    -3.2174734     0.9616154
C          -0.3294108     2.7111627    -0.9189434
H          -0.0916693     3.7606358    -0.6910721
H          -1.3634744     2.6947162    -1.2844577
C           0.6337196     2.2004135    -1.9980744
H           0.6148965     2.8567070    -2.8772718
H           0.3198017     1.2033971    -2.3345633
C           2.0693925     2.1218154    -1.4651608
H           2.7332881     1.6985665    -2.2265143
H           2.4234102     3.1508503    -1.2581670
N           2.1391475     1.2773545    -0.2695248
C           1.2714399     1.7979385     0.8097886
H           1.6168491     2.8045582     1.1144501
H           1.3659614     1.1476197     1.6814485
C          -0.1893172     1.8737540     0.3585194
H          -0.5617390     0.8560339     0.1821828
H          -0.7923597     2.2997879     1.1699742
37
127_C15H19N3_4-6-13-12 (45,) energy =    -747.2908299
C           5.8303150     1.3576698     0.3384066
H           6.6861172     1.9548214     0.0337759
C           5.9883245     0.3114367     1.2454288
H           6.9656408     0.0789792     1.6585753
C           4.8775340    -0.4478445     1.6054183
H           4.9764272    -1.2793186     2.2959036
C           3.6086515    -0.1916578     1.0664850
C           3.4304054     0.9314349     0.2150947
C           4.5651170     1.6713145    -0.1576357
H           4.4571025     2.5268242    -0.8148711
C           1.2658193    -2.3603673     2.6964398
H           0.8760563    -2.8184838     3.5959097
N           2.2961277    -1.4559695     2.7432894
C           2.5086153    -1.0846002     1.4868748
N           1.6606899    -1.7466678     0.6242479
C           1.6665613    -1.7320574    -0.8303366
H           2.6508101    -1.4208618    -1.1830433
H           0.9220001    -1.0359092    -1.2245665
H           1.4611210    -2.7415866    -1.1974732
C           0.8596843    -2.5586598     1.4014014
H           0.1023502    -3.1907341     0.9606462
C          -0.3821350     2.6655652    -0.8510453
H          -0.1749357     3.7184242    -0.6092424
H          -1.4144931     2.6244267    -1.2194969
C           0.5969860     2.1963037    -1.9345730
H           0.5611200     2.8625489    -2.8057597
H           0.3122890     1.1944662    -2.2829762
C           2.0336491     2.1492601    -1.4008025
H           2.7076562     1.7510026    -2.1665979
H           2.3633128     3.1836838    -1.1806313
N           2.1214890     1.2920411    -0.2158682
C           1.2405594     1.7767915     0.8693407
H           1.5581389     2.7896478     1.1830381
H           1.3523657     1.1213241     1.7347445
C          -0.2207791     1.8158114     0.4157159
H          -0.5604791     0.7894238     0.2243472
H          -0.8384303     2.2127196     1.2308964
37
127_C15H19N3_4-6-13-12 (60,) energy =    -747.2913366
C           5.8407164     1.3286681     0.2899547
H           6.6982063     1.9167576    -0.0274783
C           6.0102295     0.2472828     1.1519497
H           6.9980143    -0.0245279     1.5127828
C           4.8942222    -0.4955690     1.5339607
H           5.0026142    -1.3531088     2.1912112
C           3.6112057    -0.1792883     1.0702168
C           3.4299276     0.9553925     0.2364962
C           4.5662992     1.6838772    -0.1528703
H           4.4549101     2.5555654    -0.7881582
C           1.0906763    -2.1837464     2.6596584
H           0.5950743    -2.5451807     3.5510311
N           2.1286319    -1.2871354     2.7324934
C           2.4949313    -1.0619004     1.4781185
N           1.7312174    -1.7925681     0.5963744
C           1.8491996    -1.8445219    -0.8512568
H           2.8622778    -1.5581599    -1.1382337
H           1.1452629    -1.1567080    -1.3285861
H           1.6586415    -2.8653920    -1.1939471
C           0.8270434    -2.5097586     1.3535433
H           0.1102193    -3.1758772     0.8955219
C          -0.4065661     2.6466463    -0.8131994
H          -0.2186531     3.7028160    -0.5697537
H          -1.4379217     2.5873224    -1.1820693
C           0.5811349     2.1975753    -1.8975753
H           0.5317707     2.8633348    -2.7685186