16
397_C6H7NO2_0-4-10-8 (-165,) energy =    -438.0456088
C           1.4945136    -0.9476034    -0.6809377
H           1.3136279    -0.2257146    -1.4857518
H           0.5487603    -1.3978829    -0.3776371
H           2.1858591    -1.7229045    -1.0291210
O           2.0049524    -0.3003974     0.4845823
C           5.7981473     1.3176625     0.7111524
H           6.7844638     1.7460933     0.8438223
C           5.0252595     1.0825527     1.9135735
N           3.7538427     0.5097592     1.6461334
H           3.1788679     0.3193575     2.4595168
C           3.2494906     0.2169045     0.4145798
C           4.0024640     0.4454728    -0.7101605
H           3.6248986     0.2215582    -1.6979054
C           5.2975751     1.0077929    -0.5226520
H           5.9038644     1.1968147    -1.4053867
O           5.3516379     1.3104181     3.0730960
16
397_C6H7NO2_0-4-10-8 (-150,) energy =    -438.0440038
C           1.5761382    -1.2513185    -0.3600392
H           1.9177352    -1.6248242    -1.3323143
H           0.4861266    -1.2802408    -0.3272843
H           1.9953056    -1.8703231     0.4402796
O           1.9328124     0.1212068    -0.1772118
C           5.7715168     1.3058069     0.7892212
H           6.7494678     1.6748907     1.0746006
C           4.6313825     2.0766134     1.2422484
N           3.3928649     1.5101375     0.8400397
H           2.5632299     2.0082333     1.1434446
C           3.2328499     0.3953987     0.0728807
C           4.3282932    -0.3199136    -0.3391168
H           4.2221181    -1.2073041    -0.9479655
C           5.6091408     0.1711512     0.0437393
H           6.4869791    -0.3833750    -0.2793659
O           4.6366524     3.1030917     1.9125071
16
397_C6H7NO2_0-4-10-8 (-135,) energy =    -438.0419551
C           1.5585655    -1.2374409    -0.2970488
H           1.9760087    -1.8131069    -1.1308411
H           0.4706509    -1.2249739    -0.3805324
H           1.8580465    -1.6951666     0.6517845
O           1.9676655     0.1339382    -0.3495512
C           5.7706137     1.2760797     0.8065001
H           6.7389544     1.6307988     1.1392792
C           4.6153533     2.0194779     1.2682134
N           3.3911236     1.4714197     0.8019576
H           2.5505431     1.9516101     1.1042356
C           3.2577397     0.4013058    -0.0316284
C           4.3663992    -0.2858080    -0.4515317
H           4.2769704    -1.1344868    -1.1165712
C           5.6345995     0.1841006    -0.0053317
H           6.5236949    -0.3488653    -0.3337132
O           4.5989817     3.0080431     1.9930930
16
397_C6H7NO2_0-4-10-8 (-120,) energy =    -438.0403056
C           1.5331092    -1.1971659    -0.2128619
H           2.0831063    -1.9509022    -0.7867046
H           0.4840215    -1.2079168    -0.5129126
H           1.6165275    -1.4189751     0.8572376
O           2.0060023     0.1269460    -0.4949189
C           5.7674807     1.2551167     0.8145137
H           6.7247973     1.6023211     1.1852028
C           4.5941819     1.9547322     1.3004378
N           3.3860536     1.4224526     0.7778093
H           2.5338031     1.8798015     1.0829999
C           3.2831870     0.3994683    -0.1177614
C           4.4077453    -0.2407346    -0.5636175
H           4.3349931    -1.0453761    -1.2837737
C           5.6627256     0.2156046    -0.0678102
H           6.5653730    -0.2817544    -0.4144293
O           4.5534792     2.8980186     2.0824161
16
397_C6H7NO2_0-4-10-8 (-105,) energy =    -438.0393686
C           1.5100694    -1.1519090    -0.1383793
H           2.1159243    -2.0073767    -0.4570899
H           0.5099812    -1.2290528    -0.5679803
H           1.4426350    -1.1405334     0.9562127
O           2.0567959     0.0810091    -0.6301836
C           5.7580946     1.2304828     0.8309561
H           6.6996680     1.5786667     1.2393136
C           4.5598343     1.8739252     1.3357587
N           3.3745614     1.3502801     0.7565340
H           2.5088961     1.7849944     1.0571600
C           3.3132392     0.3751700    -0.1965056
C           4.4595640    -0.2084375    -0.6597043
H           4.4109390    -0.9743400    -1.4230883
C           5.6958955     0.2458793    -0.1156845
H           6.6166260    -0.2070716    -0.4752903
O           4.4851974     2.7698295     2.1692713
16
397_C6H7NO2_0-4-10-8 (-90,) energy =    -438.0389677
C           1.4701178    -1.0835855    -0.0731506
H           2.0646517    -1.9999189    -0.1633140
H           0.5059760    -1.2169991    -0.5661526
H           1.3122435    -0.8557722     0.9882986
O           2.1131197     0.0084663    -0.7490104
C           5.7468476     1.2287137     0.8246382
H           6.6710181     1.5911577     1.2595544
C           4.5211874     1.8051518     1.3454816
N           3.3611638     1.2730372     0.7251398
H           2.4817497     1.6797654     1.0249303
C           3.3445270     0.3374027    -0.2707783
C           4.5149628    -0.1829050    -0.7457546
H           4.4962773    -0.9189894    -1.5389842
C           5.7299693     0.2909191    -0.1697887
H           6.6698669    -0.1116137    -0.5395759
O           4.4074879     2.6592750     2.2175580
16
397_C6H7NO2_0-4-10-8 (-75,) energy =    -438.0388793
C           1.4281895    -1.0119808    -0.0137492
H           1.9823866    -1.9465900     0.1309381
H           0.5091468    -1.2068226    -0.5681516
H           1.1795042    -0.5827403     0.9645349
O           2.1873906    -0.0959651    -0.8185422
C           5.7515771     1.2369779     0.8264523
H           6.6583376     1.6253732     1.2753148
C           4.5006644     1.7298479     1.3716031
N           3.3649014     1.1735639     0.7274312
H           2.4735066     1.5450750     1.0367386
C           3.3904399     0.2775539    -0.3058425
C           4.5839282    -0.1655926    -0.8003758
H           4.5960533    -0.8764175    -1.6161278
C           5.7764638     0.3444144    -0.2084082
H           6.7332920     0.0032042    -0.5959996
O           4.3476070     2.5410858     2.2780283
16
397_C6H7NO2_0-4-10-8 (-60,) energy =    -438.0389187
C           1.3805807    -0.9345325     0.0232913
H           1.8881428    -1.8008346     0.4628447
H           0.5522167    -1.2683816    -0.6028875
H           0.9861672    -0.2982460     0.8250150
O           2.2652646    -0.2202326    -0.8514238
C           5.7706602     1.2508310     0.8062746
H           6.6644134     1.6694769     1.2538184
C           4.5071049     1.6540996     1.3895923
N           3.3877166     1.0645975     0.7412881
H           2.4906997     1.3846754     1.0878251
C           3.4404576     0.2043683    -0.3204307
C           4.6483626    -0.1565403    -0.8490973
H           4.6828045    -0.8444030    -1.6834697
C           5.8212506     0.3976061    -0.2612771
H           6.7871591     0.1207036    -0.6766846
O           4.3234578     2.4201335     2.3292325
16
397_C6H7NO2_0-4-10-8 (-45,) energy =    -438.0392967
C           1.3195623    -0.8746508     0.0396045
H           1.7554498    -1.5688751     0.7666758
H           0.6057265    -1.4027658    -0.5938728
H           0.7890152    -0.0717352     0.5672356
O           2.3203586    -0.3655893    -0.8495044
C           5.7539082     1.2724230     0.8033376
H           6.6316507     1.7280997     1.2461234
C           4.4834541     1.5768892     1.4241941
N           3.3844616     0.9432315     0.7765767
H           2.4841477     1.1898818     1.1700115
C           3.4648028     0.1181118    -0.3094092
C           4.6830094    -0.1522906    -0.8728887
H           4.7407808    -0.8129901    -1.7275419
C           5.8299920     0.4544273    -0.2915343
H           6.8014637     0.2475552    -0.7339521
O           4.2685465     2.2947687     2.3951188
16
397_C6H7NO2_0-4-10-8 (-30,) energy =    -438.0400071
C           1.2848398    -0.8169962     0.0343884
H           1.6177666    -1.3668890     0.9221207
H           0.6143796    -1.4434318    -0.5550767
H           0.7401213     0.0866852     0.3377272
O           2.3818580    -0.5104986    -0.8287061
C           5.7466633     1.3001710     0.7855041
H           6.6089499     1.7938928     1.2174389
C           4.4790284     1.5181282     1.4415548
N           3.3989843     0.8360485     0.8049387
H           2.5022502     1.0137950     1.2406974
C           3.4978548     0.0401031    -0.2991155
C           4.7175909    -0.1489365    -0.8972326
H           4.7907145    -0.7864058    -1.7681237
C           5.8400591     0.5077497    -0.3285003
H           6.8105905     0.3639637    -0.7973078
O           4.2420111     2.1980013     2.4348225
16
397_C6H7NO2_0-4-10-8 (-15,) energy =    -438.0405928
C           1.2630739    -0.7704947     0.0287108
H           1.4791779    -1.2257122     1.0028637
H           0.5895996    -1.4194797    -0.5317414
H           0.7776100     0.2040545     0.1693825
O           2.4399672    -0.6615861    -0.7695240
C           5.7407919     1.3314100     0.7627197
H           6.5895946     1.8644407     1.1739860
C           4.4833199     1.4811553     1.4523274
N           3.4203513     0.7469071     0.8400259
H           2.5344031     0.8653620     1.3155361
C           3.5286491    -0.0352740    -0.2711918
C           4.7414923    -0.1582398    -0.9038022
H           4.8224057    -0.7821764    -1.7837492
C           5.8426853     0.5483396    -0.3584895
H           6.8062614     0.4559905    -0.8538602
O           4.2346164     2.1393126     2.4575238
16
397_C6H7NO2_0-4-10-8 (0,) energy =    -438.0407914
C           1.2483946    -0.7339209     0.0137654
H           1.3378817    -1.1118341     1.0401915
H           0.5667987    -1.3770280    -0.5434324
H           0.8483961     0.2879818     0.0232721
O           2.4906567    -0.8042287    -0.6809394
C           5.7330069     1.3620955     0.7380608
H           6.5685944     1.9342828     1.1229294
C           4.4917985     1.4559058     1.4648377
N           3.4457124     0.6699984     0.8871825
H           2.5754747     0.7377599     1.3998658
C           3.5539345    -0.1038542    -0.2293798
C           4.7517190    -0.1715533    -0.8992249
H           4.8323584    -0.7872198    -1.7850414
C           5.8362297     0.5816505    -0.3852590
H           6.7872862     0.5329071    -0.9102335
O           4.2423190     2.1038734     2.4765776
16
397_C6H7NO2_0-4-10-8 (15,) energy =    -438.0405928
C           1.2406174    -0.7117499    -0.0191608
H           1.1960655    -0.9985964     1.0396368
H           0.5672539    -1.3567341    -0.5843554
H           0.9290709     0.3330774    -0.1377367
O           2.5363910    -0.9359885    -0.5712802
C           5.7140303     1.3980596     0.7215401
H           6.5349556     2.0080783     1.0788944
C           4.4940935     1.4361153     1.4891998
N           3.4673205     0.6018591     0.9467533
H           2.6180502     0.6133882     1.4977953
C           3.5733491    -0.1655997    -0.1748133
C           4.7493915    -0.1786781    -0.8841494
H           4.8263658    -0.7856884    -1.7762101
C           5.8165689     0.6210774    -0.4038986
H           6.7509510     0.6158274    -0.9600390
O           4.2507997     2.0716597     2.5100943
16
397_C6H7NO2_0-4-10-8 (30,) energy =    -438.0400071
C           1.2378536    -0.6827291    -0.0631970
H           1.0636516    -0.8377732     1.0096439
H           0.5829263    -1.3535513    -0.6204001
H           1.0146410     0.3565145    -0.3304790
O           2.5680310    -1.0424723    -0.4420574
C           5.7038182     1.4226042     0.6965150
H           6.5143816     2.0641208     1.0210304
C           4.5145204     1.4167186     1.5152595
N           3.5017242     0.5424814     1.0183077
H           2.6791297     0.5083784     1.6080421
C           3.5886803    -0.2194195    -0.1104907
C           4.7315939    -0.1889448    -0.8681553
H           4.7919617    -0.7899699    -1.7655348
C           5.7906727     0.6488746    -0.4310749
H           6.7006984     0.6779792    -1.0255430
O           4.2948438     2.0470435     2.5445399
16
397_C6H7NO2_0-4-10-8 (45,) energy =    -438.0392967
C           1.2413696    -0.6512158    -0.1227925
H           0.9673889    -0.5814197     0.9376844
H           0.6047562    -1.3999899    -0.5958900
H           1.0941526     0.3207432    -0.6067356
O           2.5835095    -1.1175227    -0.3029858
C           5.6927265     1.4472513     0.6762682
H           6.4969773     2.1129261     0.9664233
C           4.5485546     1.3908742     1.5593924
N           3.5435433     0.4886703     1.1069594
H           2.7601591     0.4012013     1.7432384
C           3.5967810    -0.2590031    -0.0353159
C           4.6932194    -0.1814606    -0.8516883
H           4.7256603    -0.7697807    -1.7589482
C           5.7480976     0.6884403    -0.4616204
H           6.6240424     0.7545301    -1.1024321
O           4.3707070     2.0028574     2.6072845
16
397_C6H7NO2_0-4-10-8 (60,) energy =    -438.0389187
C           1.2729714    -0.6270385    -0.2002005
H           0.9598011    -0.2229050     0.7702550
H           0.6189451    -1.4590468    -0.4643106
H           1.2024388     0.1585348    -0.9612560
O           2.5988149    -1.1733278    -0.1586972
C           5.6969336     1.4615086     0.6531473
H           6.4976522     2.1459970     0.9074700
C           4.6120987     1.3540957     1.6076380
N           3.6086518     0.4332963     1.2001279
H           2.8736612     0.2903924     1.8831685
C           3.6160189    -0.2972819     0.0441767
C           4.6545802    -0.1743024    -0.8361894
H           4.6493851    -0.7489081    -1.7528789
C           5.7072364     0.7233995    -0.4980727
H           6.5404258     0.8257321    -1.1891161
O           4.4909318     1.9415969     2.6770390
16
397_C6H7NO2_0-4-10-8 (75,) energy =    -438.0388793
C           1.2920921    -0.6230845    -0.2964082
H           0.9608278     0.0421310     0.5103655
H           0.5976625    -1.4597472    -0.3843184
H           1.3231803    -0.0629502    -1.2381334
O           2.5750545    -1.2036841    -0.0134336
C           5.6685899     1.4741174     0.6540944
H           6.4671530     2.1716821     0.8782456
C           4.6442747     1.3194967     1.6698520
N           3.6396944     0.3883654     1.2981264
H           2.9427737     0.2041770     2.0113252
C           3.5999590    -0.3211275     0.1292886
C           4.5808544    -0.1568022    -0.8067658
H           4.5411803    -0.7196144    -1.7300961
C           5.6302489     0.7622216    -0.5120786
H           6.4198663     0.8988058    -1.2469397
O           4.5785616     1.8811535     2.7576773
16
397_C6H7NO2_0-4-10-8 (90,) energy =    -438.0389677
C           1.3157439    -0.6424653    -0.3937667
H           0.9507766     0.1771037     0.2375837
H           0.5900323    -1.4571784    -0.3915875
H           1.4613094    -0.2758995    -1.4163649
O           2.5346561    -1.1960414     0.1264462
C           5.6616167     1.4722628     0.6476209
H           6.4682999     2.1704197     0.8385353
C           4.7017317     1.2892638     1.7204369
N           3.6793952     0.3637166     1.3860490
H           3.0105427     0.1687772     2.1231423
C           3.5754295    -0.3223803     0.2087624
C           4.4979493    -0.1342824    -0.7810958
H           4.4143853    -0.6849817    -1.7090667
C           5.5560699     0.7878337    -0.5309567
H           6.2997812     0.9458919    -1.3081917
O           4.6983051     1.8282884     2.8215328
16
397_C6H7NO2_0-4-10-8 (105,) energy =    -438.0393686
C           1.3408993    -0.6685094    -0.4897238
H           0.9509695     0.2643881    -0.0649115
H           0.5888936    -1.4545367    -0.4040896
H           1.5923451    -0.5112834    -1.5444829
O           2.4808291    -1.1306331     0.2504587
C           5.6699984     1.4822204     0.6479867
H           6.4936404     2.1673860     0.8114195
C           4.7668021     1.2825369     1.7655888
N           3.7138824     0.3806998     1.4612409
H           3.0683476     0.1864052     2.2190427
C           3.5419092    -0.2782331     0.2783980
C           4.4134259    -0.0765946    -0.7555324
H           4.2825253    -0.6073969    -1.6897916
C           5.4912809     0.8305592    -0.5406424
H           6.1941535     1.0001237    -1.3527038
O           4.8262418     1.7953256     2.8775570
16
397_C6H7NO2_0-4-10-8 (120,) energy =    -438.0403056
C           1.3642846    -0.7147541    -0.5634883
H           1.0114959     0.3098728    -0.3993217
H           0.5587786    -1.4215250    -0.3576581
H           1.6899232    -0.8274015    -1.6032867
O           2.4153645    -1.0427753     0.3552551
C           5.6935036     1.4665092     0.6608679
H           6.5417465     2.1253861     0.8050268
C           4.8412000     1.2489009     1.8134473
N           3.7477139     0.3890380     1.5289125
H           3.1217939     0.1996617     2.3041552
C           3.5023516    -0.2267744     0.3374018
C           4.3259904    -0.0071191    -0.7334155
H           4.1447949    -0.5018892    -1.6787918
C           5.4354426     0.8650582    -0.5398467
H           6.1000839     1.0477865    -1.3807661
O           4.9655108     1.7206717     2.9381317
16
397_C6H7NO2_0-4-10-8 (135,) energy =    -438.0419551
C           1.3948316    -0.7695738    -0.6371046
H           1.1633873     0.2897937    -0.7909239
H           0.4993627    -1.3070096    -0.3209062
H           1.7631992    -1.2050135    -1.5728169
O           2.3408822    -0.9324997     0.4255540
C           5.7075291     1.4563454     0.6754775
H           6.5800289     2.0849238     0.8092115
C           4.8966133     1.2158022     1.8523383
N           3.7653522     0.4020921     1.5791631
H           3.1599533     0.2102666     2.3698752
C           3.4549152    -0.1621048     0.3778674
C           4.2371256     0.0835888    -0.7200177
H           4.0060692    -0.3603997    -1.6791934
C           5.3788773     0.9148166    -0.5364315
H           6.0112594     1.1153928    -1.3979649
O           5.0784399     1.6380289     2.9888431
16
397_C6H7NO2_0-4-10-8 (150,) energy =    -438.0440038
C           1.4233238    -0.8146559    -0.6774139
H           1.2711893     0.1988008    -1.0635986
H           0.4726987    -1.2418661    -0.3551748
H           1.8554948    -1.4469738    -1.4615799
O           2.2526915    -0.7928220     0.4871206
C           5.7262287     1.4352231     0.6951567
H           6.6276114     2.0230964     0.8215151
C           4.9424920     1.1876457     1.8883645
N           3.7715157     0.4281741     1.6264293
H           3.1826828     0.2381935     2.4299412
C           3.3990067    -0.0793776     0.4179555
C           4.1555693     0.1736398    -0.6978425
H           3.8765213    -0.2197775    -1.6657200
C           5.3365836     0.9499731    -0.5223253
H           5.9486114     1.1549837    -1.3974763
O           5.1756573     1.5629278     3.0319246
16
397_C6H7NO2_0-4-10-8 (165,) energy =    -438.0456087
C           1.4469911    -0.8648317    -0.7005051
H           1.2997325     0.0750600    -1.2438716
H           0.4836816    -1.2794383    -0.4016225
H           1.9708238    -1.5835087    -1.3413291
O           2.1640644    -0.6408045     0.5133289
C           5.7508004     1.3986961     0.6940670
H           6.6825431     1.9382831     0.8151134
C           4.9819255     1.1539392     1.8971026
N           3.7736179     0.4526045     1.6436707
H           3.1961815     0.2658335     2.4561489
C           3.3432923     0.0099134     0.4288725
C           4.0877094     0.2578023    -0.6975411
H           3.7681367    -0.0840518    -1.6718716
C           5.3103932     0.9680276    -0.5263749
H           5.9116481     1.1685007    -1.4100440
O           5.2566807     1.4855275     3.0449307
16
397_C6H7NO2_0-4-10-8 (180,) energy =    -438.0462009
C           1.4704412    -0.9060136    -0.6991791
H           1.3036851    -0.0618812    -1.3779756
H           0.5137363    -1.3414467    -0.4094608
H           2.0874569    -1.6633222    -1.1960684
O           2.0788377    -0.4702027     0.5154376
C           5.7764861     1.3587021     0.7021772
H           6.7379393     1.8427812     0.8254493
C           5.0095257     1.1219756     1.9079439
N           3.7668245     0.4845881     1.6524316
H           3.1942263     0.2988537     2.4685536
C           3.2920381     0.1132419     0.4302775
C           4.0372001     0.3487981    -0.6986740
H           3.6848649     0.0641616    -1.6798179
C           5.2992362     0.9855187    -0.5231959
H           5.8999389     1.1779837    -1.4090151
O           5.3158524     1.4043920     3.0609221
