31
087_C12H18N+_1-0-20-17 (-165,) energy =    -522.6433669
C           3.7954749     1.9975185    -0.3537848
C           2.5857164     2.7123642    -0.3944331
H           2.5848177     3.7845980    -0.5638741
C           1.3599916     2.0758198    -0.2074630
H           0.4439380     2.6582036    -0.2433039
C           1.3090112     0.6996811     0.0167052
H           0.3547618     0.2010220     0.1568772
C           2.4966284    -0.0269383     0.0536888
H           2.4762398    -1.1000807     0.2199817
C           3.7242319     0.6144351    -0.1295419
N           7.9082271     3.1540939     0.4700243
H           4.6177636     0.0001704    -0.1059740
H           7.9297358     2.4528980     1.2206624
H           8.8299189     3.6048770     0.4702457
C           7.6749012     2.4434141    -0.8565013
H           8.4833936     1.7173344    -0.9726930
H           7.7801901     3.2078306    -1.6285495
C           6.3022260     1.7746529    -0.8443688
H           6.3335726     0.9767140    -0.0928288
H           6.1606663     1.2815192    -1.8120493
C           5.1299094     2.7496709    -0.5492998
C           5.0025461     3.7464251    -1.7288313
H           5.9436233     4.2558723    -1.9647342
C           5.4587267     3.4969861     0.7776195
H           4.2697747     4.5295684    -1.5215100
H           5.3977697     2.7909701     1.6169387
H           4.7055381     4.2667228     0.9751875
H           4.6784407     3.2215993    -2.6324604
C           6.8257711     4.1767210     0.7894994
H           7.0713553     4.6030890     1.7654988
H           6.9184372     4.9580152     0.0318701
31
087_C12H18N+_1-0-20-17 (-150,) energy =    -522.6429785
C           3.8056941     2.0210151    -0.4002217
C           2.5734167     2.6391896    -0.6681933
H           2.5351653     3.6497323    -1.0586436
C           1.3654687     1.9739640    -0.4541778
H           0.4308340     2.4792805    -0.6793884
C           1.3562390     0.6715224     0.0418016
H           0.4170596     0.1516173     0.2047164
C           2.5684444     0.0456096     0.3278942
H           2.5812548    -0.9680764     0.7177947
C           3.7744983     0.7143372     0.1148519
N           7.9223299     3.0920428     0.4616703
H           4.6893100     0.1848542     0.3625529
H           7.9375971     2.3297668     1.1503060
H           8.8493302     3.5304216     0.4966628
C           7.6768576     2.4997957    -0.9195762
H           8.4775348     1.7785237    -1.1015969
H           7.7883599     3.3271559    -1.6228666
C           6.2968930     1.8460886    -0.9624903
H           6.3245489     0.9728413    -0.3028533
H           6.1450374     1.4566246    -1.9752263
C           5.1302485     2.7991490    -0.5705757
C           4.9968011     3.9003114    -1.6472464
H           5.9497336     4.3910585    -1.8717099
C           5.4799094     3.4295895     0.8129072
H           4.3093301     4.6909126    -1.3356152
H           5.4221495     2.6567412     1.5910016
H           4.7321190     4.1835644     1.0805485
H           4.6202518     3.4778591    -2.5835752
C           6.8523435     4.0957555     0.8700555
H           7.1075826     4.4395481     1.8757417
H           6.9480305     4.9350869     0.1776125
31
087_C12H18N+_1-0-20-17 (-135,) energy =    -522.6440958
C           3.8041262     2.0589305    -0.3858501
C           2.5799284     2.5498129    -0.8623989
H           2.5319724     3.4847777    -1.4082614
C           1.3911892     1.8442553    -0.6616648
H           0.4606140     2.2475981    -1.0500726
C           1.3958601     0.6350253     0.0299192
H           0.4718086     0.0861620     0.1841434
C           2.6017692     0.1389015     0.5262877
H           2.6232680    -0.7990896     1.0734686
C           3.7859662     0.8457974     0.3242933
N           7.9408948     3.0278988     0.4289590
H           4.7005846     0.4311039     0.7414206
H           7.9507279     2.2257835     1.0707839
H           8.8793242     3.4407303     0.4694714
C           7.6519827     2.5257224    -0.9793027
H           8.4332895     1.8017993    -1.2243192
H           7.7639394     3.3929455    -1.6331756
C           6.2567089     1.9063686    -1.0312132
H           6.2686741     0.9837175    -0.4412652
H           6.0707263     1.5983035    -2.0660900
C           5.1181458     2.8539631    -0.5457689
C           4.9648222     4.0211765    -1.5426317
H           5.9074308     4.5497554    -1.7197745
C           5.5164394     3.4013759     0.8599465
H           4.2512753     4.7661390    -1.1791163
H           5.4611343     2.5937212     1.6009554
H           4.7932499     4.1573034     1.1843376
H           4.6113795     3.6601863    -2.5131287
C           6.9057142     4.0317945     0.9184135
H           7.1923290     4.3128513     1.9350516
H           7.0070789     4.9061136     0.2717248
31
087_C12H18N+_1-0-20-17 (-120,) energy =    -522.6446042
C           3.7932691     2.0981755    -0.3382855
C           2.6161490     2.4559378    -1.0097655
H           2.5913666     3.3182678    -1.6655431
C           1.4426296     1.7139481    -0.8526797
H           0.5464077     2.0169779    -1.3860268
C           1.4189636     0.5965705    -0.0214792
H           0.5062852     0.0210416     0.0997280
C           2.5820827     0.2240791     0.6541909
H           2.5819171    -0.6447808     1.3059176
C           3.7503535     0.9664862     0.4950004
N           7.9655159     2.9663158     0.3724449
H           4.6369869     0.6439544     1.0370176
H           7.9775025     2.1394012     0.9819229
H           8.9151758     3.3540713     0.3942379
C           7.6135694     2.5265306    -1.0425220
H           8.3690551     1.7969057    -1.3450340
H           7.7186393     3.4167040    -1.6663284
C           6.2031392     1.9413989    -1.0629795
H           6.2072077     0.9959396    -0.5075307
H           5.9670635     1.6793901    -2.1000470
C           5.1067052     2.8934431    -0.4944513
C           4.9369935     4.1039269    -1.4350932
H           5.8613267     4.6800324    -1.5493116
C           5.5673881     3.3877104     0.9108520
H           4.1771054     4.7938396    -1.0562970
H           5.5173075     2.5671809     1.6362768
H           4.8791226     4.1562816     1.2790326
H           4.6354581     3.7858571    -2.4374627
C           6.9760938     3.9768592     0.9373708
H           7.3073317     4.2120060     1.9520623
H           7.0794331     4.8720361     0.3205256
31
087_C12H18N+_1-0-20-17 (-105,) energy =    -522.6439268
C           3.7757021     2.1272975    -0.2905337
C           2.6792473     2.3435595    -1.1379505
H           2.7051472     3.1234502    -1.8899513
C           1.5187195     1.5741306    -1.0284547
H           0.6840804     1.7727793    -1.6943685
C           1.4298392     0.5613369    -0.0759686
H           0.5265952    -0.0350509     0.0099899
C           2.5172881     0.3189534     0.7637899
H           2.4689839    -0.4709356     1.5077371
C           3.6740513     1.0886726     0.6512554
N           7.9830620     2.9288436     0.2953728
H           4.5037757     0.8548786     1.3139314
H           8.0083343     2.0792700     0.8725248
H           8.9387113     3.3022296     0.2905354
C           7.5636866     2.5465451    -1.1179291
H           8.2964040     1.8214315    -1.4812681
H           7.6490842     3.4586842    -1.7126047
C           6.1467456     1.9784618    -1.0926971
H           6.1589431     1.0163297    -0.5642478
H           5.8578207     1.7518990    -2.1244052
C           5.0904716     2.9226947    -0.4413765
C           4.8971370     4.1752463    -1.3240051
H           5.7976100     4.7962468    -1.3765270
C           5.6162974     3.3654869     0.9565609
H           4.0935619     4.8061883    -0.9325565
H           5.5911757     2.5292395     1.6633521
H           4.9580271     4.1337892     1.3767333
H           4.6434139     3.9055243    -2.3530574
C           7.0349789     3.9318325     0.9391669
H           7.4134748     4.1250483     1.9461051
H           7.1275611     4.8473110     0.3514837
31
087_C12H18N+_1-0-20-17 (-90,) energy =    -522.6429019
C           3.7818604     2.1211755    -0.2578309
C           2.8024422     2.1879243    -1.2625898
H           2.9286322     2.8455568    -2.1152524
C           1.6379066     1.4227341    -1.1930459
H           0.8987691     1.5044499    -1.9846223
C           1.4219282     0.5633886    -0.1169271
H           0.5139597    -0.0292404    -0.0595707
C           2.3872328     0.4740745     0.8844152
H           2.2379074    -0.1906833     1.7303164
C           3.5524020     1.2388497     0.8107457
N           8.0226545     2.9204497     0.2104806
H           4.2735728     1.1274189     1.6142174
H           8.0901780     2.0452268     0.7443238
H           8.9710867     3.3102678     0.1751856
C           7.5366190     2.5965290    -1.1959236
H           8.2569349     1.8965808    -1.6271222
H           7.5825806     3.5350142    -1.7529355
C           6.1271697     2.0142295    -1.1259270
H           6.1664574     1.0341830    -0.6315927
H           5.7938199     1.8220860    -2.1511159
C           5.0958253     2.9240150    -0.3911752
C           4.8658414     4.2302242    -1.1880579
H           5.7443757     4.8840887    -1.1941286
C           5.6854202     3.2845450     1.0027699
H           4.0385528     4.8010837    -0.7561344
H           5.7237513     2.4017949     1.6494116
H           5.0401145     4.0079108     1.5131386
H           4.6238927     4.0303990    -2.2350412
C           7.0935210     3.8745688     0.9490411
H           7.5154822     4.0181897     1.9469156
H           7.1485480     4.8217510     0.4092807
31
087_C12H18N+_1-0-20-17 (-75,) energy =    -522.6435978
C           3.7911641     2.0771595    -0.2504990
C           2.9471449     1.9715759    -1.3697839
H           3.2098031     2.4574749    -2.3047368
C           1.7650980     1.2352116    -1.3201242
H           1.1367640     1.1714012    -2.2037043
C           1.3874316     0.5907239    -0.1414338
H           0.4643179     0.0206997    -0.0984086
C           2.2060031     0.6920738     0.9806862
H           1.9235321     0.2037799     1.9088382
C           3.3929311     1.4275816     0.9271691
N           8.0490150     2.9126960     0.1307320
H           3.9852394     1.4891180     1.8335219
H           8.1682692     2.0074241     0.6016286
H           8.9818034     3.3372138     0.0815163
C           7.5109331     2.6647799    -1.2721012
H           8.2252768     2.0069764    -1.7737699
H           7.5172810     3.6359793    -1.7718202
C           6.1156641     2.0516375    -1.1847008
H           6.1870268     1.0468625    -0.7469057
H           5.7554376     1.9091014    -2.2089449
C           5.0945311     2.8969491    -0.3633427
C           4.8080906     4.2571213    -1.0428909
H           5.6909494     4.9038303    -1.1016136
C           5.7363779     3.1435693     1.0299748
H           4.0390544     4.8009772    -0.4860222
H           5.8317364     2.1971971     1.5758406
H           5.0986947     3.7902419     1.6425664
H           4.4458263     4.1302150    -2.0655933
C           7.1221098     3.7815687     0.9702948
H           7.5777516     3.8647208     1.9601620
H           7.1270342     4.7670203     0.5007216
31
087_C12H18N+_1-0-20-17 (-60,) energy =    -522.6449150
C           3.7923228     2.0690990    -0.2467873
C           3.0759141     1.7775588    -1.4204145
H           3.4391991     2.1221637    -2.3853409
C           1.8897172     1.0479204    -1.3819947
H           1.3593100     0.8362006    -2.3058030
C           1.3831793     0.5965029    -0.1619266
H           0.4575866     0.0298598    -0.1285704
C           2.0743021     0.8859100     1.0120109
H           1.6885674     0.5488900     1.9697409
C           3.2658271     1.6153382     0.9703148
N           8.0576685     2.8862890     0.0677411
H           3.7627821     1.8274544     1.9109190
H           8.1839395     1.9496195     0.4706681
H           8.9905489     3.3115255     0.0270266
C           7.4838607     2.7420802    -1.3340413
H           8.1846387     2.1260728    -1.9032413
H           7.4756552     3.7481836    -1.7592626
C           6.0929692     2.1186607    -1.2573868
H           6.1790745     1.0833527    -0.9004854
H           5.7143509     2.0531220    -2.2818825
C           5.0908065     2.8931545    -0.3479744
C           4.7561947     4.2854943    -0.9363517
H           5.6329970     4.9352744    -1.0470544
C           5.7682815     3.0550945     1.0392004
H           4.0408950     4.8037564    -0.2902330
H           5.8600897     2.0764687     1.5283310
H           5.1527221     3.6745126     1.7003634
H           4.2967900     4.1942500    -1.9240435
C           7.1521302     3.6956040     0.9844638
H           7.6330777     3.7189206     1.9655217
H           7.1406064     4.7086640     0.5769705
31
087_C12H18N+_1-0-20-17 (-45,) energy =    -522.6447152
C           3.7986910     2.0710691    -0.2525397
C           3.1953896     1.5853574    -1.4246522
H           3.6406760     1.7774246    -2.3967968
C           2.0047322     0.8618429    -1.3788801
H           1.5626572     0.4992960    -2.3023198
C           1.3840264     0.6065542    -0.1555261
H           0.4570005     0.0425558    -0.1176450
C           1.9645542     1.0871505     1.0162129
H           1.4916673     0.9020326     1.9762858
C           3.1582229     1.8109778     0.9677569
N           8.0730066     2.8635106     0.0184105
H           3.5720542     2.1698397     1.9042348
H           8.1970958     1.8972043     0.3448784
H           9.0087901     3.2836192    -0.0054255
C           7.4726660     2.8371742    -1.3783442
H           8.1597395     2.2689961    -2.0104207
H           7.4609343     3.8753308    -1.7180464
C           6.0819078     2.2112534    -1.3323472
H           6.1729621     1.1463416    -1.0786052
H           5.6939460     2.2469429    -2.3540195
C           5.0965091     2.8989050    -0.3401798
C           4.7292215     4.3217032    -0.8317717
H           5.5950863     4.9880528    -0.9350596
C           5.8018150     2.9723441     1.0417206
H           4.0302685     4.7931390    -0.1340263
H           5.8817737     1.9653475     1.4730938
H           5.2087714     3.5630748     1.7470847
H           4.2344378     4.2733739    -1.8062766
C           7.1884934     3.6070513     1.0066031
H           7.6863038     3.5603957     1.9783248
H           7.1731666     4.6462774     0.6706860
31
087_C12H18N+_1-0-20-17 (-30,) energy =    -522.6444190
C           3.8012393     2.0463944    -0.2580692
C           3.3103105     1.3587437    -1.3789069
H           3.8490700     1.3727213    -2.3208757
C           2.1144040     0.6414695    -1.3208464
H           1.7623476     0.1175348    -2.2046954
C           1.3760882     0.5986102    -0.1393173
H           0.4462006     0.0399940    -0.0929639
C           1.8427967     1.2856307     0.9807628
H           1.2766657     1.2683152     1.9074847
C           3.0384367     2.0019580     0.9199186
N           8.0755081     2.8428449    -0.0365697
H           3.3598054     2.5323669     1.8109298
H           8.2026671     1.8522959     0.2051935
H           9.0119578     3.2620987    -0.0440616
C           7.4452453     2.9360255    -1.4162500
H           8.1201386     2.4303363    -2.1113045
H           7.4218218     4.0001033    -1.6624483
C           6.0587365     2.3003071    -1.3986793
H           6.1599858     1.2173873    -1.2454429
H           5.6532878     2.4301891    -2.4065108
C           5.0885876     2.8925142    -0.3358269
C           4.6928558     4.3421990    -0.7110802
H           5.5495298     5.0240643    -0.7893947
C           5.8251802     2.8648613     1.0359922
H           4.0096270     4.7549907     0.0373247
H           5.9058685     1.8285155     1.3909384
H           5.2503361     3.4032347     1.7949696
H           4.1707170     4.3555064    -1.6726616
C           7.2112533     3.5018079     1.0256189
H           7.7277247     3.3780424     1.9807530
H           7.1885715     4.5648255     0.7747508
31
087_C12H18N+_1-0-20-17 (-15,) energy =    -522.6448873
C           3.7955022     2.0447861    -0.2751684
C           3.4105815     1.1712275    -1.3020952
H           4.0302839     1.0336684    -2.1818466
C           2.2147085     0.4525637    -1.2270258
H           1.9435728    -0.2180654    -2.0371954
C           1.3748137     0.5955720    -0.1250168
H           0.4459626     0.0363551    -0.0664919
C           1.7368453     1.4704744     0.9003731
H           1.0891982     1.5996608     1.7626155
C           2.9294881     2.1871586     0.8222196
N           8.0731378     2.8468687    -0.1091650
H           3.1714771     2.8720967     1.6305333
H           8.2237597     1.8438522     0.0551282
H           9.0018732     3.2829997    -0.1082007
C           7.4085899     3.0276947    -1.4649037
H           8.0734916     2.5804848    -2.2079885
H           7.3666826     4.1055242    -1.6364806
C           6.0315393     2.3713115    -1.4584830
H           6.1578622     1.2842463    -1.3655800
H           5.5965814     2.5476141    -2.4477142
C           5.0835158     2.8888972    -0.3428341
C           4.6896179     4.3620217    -0.6124664
H           5.5482279     5.0431992    -0.6665123
C           5.8482897     2.7537748     1.0092456
H           4.0272048     4.7331482     0.1748145
H           5.9492265     1.6903877     1.2655099
H           5.2795735     3.2082781     1.8253073
H           4.1461509     4.4391960    -1.5592578
C           7.2269346     3.4074523     1.0232634
H           7.7678859     3.2121775     1.9526318
H           7.1871016     4.4869421     0.8608515
31
087_C12H18N+_1-0-20-17 (0,) energy =    -522.6447775
C           3.7645046     2.0714742    -0.2905351
C           3.4699387     1.0430943    -1.1962505
H           4.1471236     0.7969723    -2.0070987
C           2.2809557     0.3150442    -1.0973865
H           2.0766755    -0.4713139    -1.8181809
C           1.3647251     0.5947679    -0.0865593
H           0.4416452     0.0282001    -0.0102278
C           1.6441151     1.6138060     0.8258374
H           0.9395218     1.8465860     1.6189040
C           2.8281804     2.3405074     0.7227502
N           8.0504845     2.8230912    -0.1761582
H           3.0136208     3.1303790     1.4461892
H           8.2008776     1.8111283    -0.0814802
H           8.9808520     3.2555778    -0.1662793
C           7.3614344     3.0931156    -1.5061443
H           8.0098874     2.6878935    -2.2869085
H           7.3257216     4.1794429    -1.6106390
C           5.9811592     2.4422613    -1.5118579
H           6.1168617     1.3532589    -1.4826591
H           5.5177980     2.6702347    -2.4777631
C           5.0653906     2.8965402    -0.3446687
C           4.7002345     4.3917802    -0.5249289
H           5.5746208     5.0520825    -0.5732913
C           5.8494963     2.6652241     0.9815848
H           4.0757587     4.7470998     0.2986822
H           5.9480254     1.5859678     1.1612366
H           5.2904039     3.0624902     1.8341644
H           4.1311308     4.5297728    -1.4494185
C           7.2332239     3.3089158     1.0122676
H           7.7941121     3.0460255     1.9127253
H           7.1977198     4.3972062     0.9261516
31
087_C12H18N+_1-0-20-17 (15,) energy =    -522.6435590
C           3.7573761     2.0940731    -0.3107842
C           3.5644408     0.9302477    -1.0696983
H           4.3116729     0.5892665    -1.7780753
C           2.3871376     0.1851210    -0.9644955
H           2.2629820    -0.7036815    -1.5763053
C           1.3805912     0.5771414    -0.0853281
H           0.4657785    -0.0019558    -0.0036000
C           1.5620257     1.7231749     0.6898403
H           0.7894930     2.0425381     1.3832428
C           2.7352337     2.4671787     0.5794039
N           8.0483504     2.8111408    -0.2282805
H           2.8434229     3.3491481     1.2035896
H           8.1945819     1.7945638    -0.2004007
H           8.9813573     3.2373875    -0.2053459
C           7.3427559     3.1682201    -1.5296708
H           7.9766694     2.8060034    -2.3428655
H           7.3171984     4.2588731    -1.5674205
C           5.9576935     2.5262769    -1.5533354
H           6.0994715     1.4393383    -1.5905657
H           5.4746662     2.8069615    -2.4954593
C           5.0653613     2.9129196    -0.3429578
C           4.7303098     4.4233653    -0.4317912
H           5.6196030     5.0591290    -0.5099323
C           5.8648734     2.5929213     0.9550143
H           4.1776024     4.7675951     0.4453112
H           5.9564986     1.5039146     1.0655584
H           5.3145340     2.9405379     1.8352479
H           4.1084952     4.6195472    -1.3105145
C           7.2544907     3.2235207     1.0042257
H           7.8293865     2.8976790     1.8748429
H           7.2263955     4.3153162     0.9909630
31
087_C12H18N+_1-0-20-17 (30,) energy =    -522.6428903
C           3.7553008     2.0946642    -0.2831876
C           3.6659946     0.8197329    -0.8653490
H           4.5040221     0.3838380    -1.3995815
C           2.4948537     0.0645276    -0.7839534
H           2.4580096    -0.9143937    -1.2531001
C           1.3808981     0.5623621    -0.1106454
H           0.4686105    -0.0231844    -0.0492145
C           1.4531320     1.8220996     0.4821709
H           0.5960453     2.2273821     1.0120377
C           2.6239333     2.5756854     0.3968123
N           8.0452919     2.7792045    -0.3081634
H           2.6364220     3.5516566     0.8690193
H           8.1748327     1.7607017    -0.3456373
H           8.9858884     3.1887758    -0.2917386
C           7.3037610     3.2253166    -1.5611180
H           7.9037198     2.9026381    -2.4157233
H           7.2991472     4.3164927    -1.5325537
C           5.9056287     2.6102119    -1.5789667
H           6.0248498     1.5293131    -1.7071248
H           5.3948309     2.9694609    -2.4791147
C           5.0585306     2.9251397    -0.3125660
C           4.7474923     4.4402650    -0.2811784
H           5.6382107     5.0601845    -0.4286546
C           5.9024086     2.5140646     0.9329186
H           4.3143474     4.7466387     0.6743830
H           5.9879951     1.4196809     0.9697290
H           5.3831564     2.8073248     1.8513643
H           4.0355675     4.7005041    -1.0700130
C           7.2994998     3.1280801     0.9729476
H           7.8997126     2.7466371     1.8029943
H           7.2837337     4.2190995     1.0236389
31
087_C12H18N+_1-0-20-17 (45,) energy =    -522.6438842
C           3.7584310     2.1157621    -0.2247592
C           3.7638214     0.7636105    -0.6090976
H           4.6825799     0.2779392    -0.9281558
C           2.6026405    -0.0070180    -0.5747731
H           2.6417513    -1.0490008    -0.8788159
C           1.3978401     0.5579557    -0.1557911
H           0.4910173    -0.0386922    -0.1313498
C           1.3727221     1.8962208     0.2302946
H           0.4436578     2.3526035     0.5590441
C           2.5379270     2.6654552     0.1942938
N           8.0386791     2.7406957    -0.4119139
H           2.4722725     3.7043335     0.4956322
H           8.1360604     1.7226288    -0.5093179
H           8.9905802     3.1234356    -0.4231854
C           7.2477730     3.2732811    -1.5991501
H           7.7968389     2.9871232    -2.4998062
H           7.2710896     4.3610637    -1.5086723
C           5.8342307     2.6947245    -1.5801384
H           5.9022977     1.6221046    -1.7885296
H           5.2879256     3.1304387    -2.4241269
C           5.0574928     2.9509873    -0.2535470
C           4.7719586     4.4602780    -0.1111811
H           5.6767083     5.0702932    -0.2035084
C           5.9562694     2.4626910     0.9256710
H           4.3352453     4.6949397     0.8636737
H           6.0197395     1.3668702     0.9108284
H           5.4913978     2.7242303     1.8822912
H           4.0749975     4.7986733    -0.8836886
C           7.3690860     3.0412399     0.9222466
H           8.0002388     2.6032395     1.6997421
H           7.3864328     4.1281782     1.0282789
31
087_C12H18N+_1-0-20-17 (60,) energy =    -522.6446022
C           3.7575380     2.1216384    -0.1973126
C           3.8096101     0.7283986    -0.3788396
H           4.7627613     0.2235683    -0.5224398
C           2.6527636    -0.0482004    -0.3836006
H           2.7269692    -1.1223326    -0.5263988
C           1.4057805     0.5529551    -0.2053423
H           0.5017305    -0.0483721    -0.2079978
C           1.3344246     1.9321499    -0.0241450
H           0.3720316     2.4155753     0.1158449
C           2.4967012     2.7076318    -0.0199858
N           8.0234241     2.7293098    -0.5064784
H           2.3970552     3.7769398     0.1247246
H           8.1010597     1.7159629    -0.6566674
H           8.9794805     3.0998619    -0.5433598
C           7.1876263     3.3279175    -1.6300764
H           7.6939756     3.0825789    -2.5671220
H           7.2252112     4.4097925    -1.4860652
C           5.7698499     2.7629410    -1.5738179
H           5.8046716     1.6995407    -1.8392229
H           5.1867646     3.2504245    -2.3626564
C           5.0596357     2.9500953    -0.1981344
C           4.7867473     4.4491931     0.0406799
H           5.7041806     5.0471960     0.0478463
C           6.0034176     2.4089987     0.9190019
H           4.2937372     4.6116503     1.0037336
H           6.0618480     1.3153661     0.8687867
H           5.5858547     2.6423537     1.9044508
H           4.1444199     4.8632432    -0.7421504
C           7.4206608     2.9755162     0.8701199
H           8.0829217     2.4980210     1.5967733
H           7.4571427     4.0562289     1.0225593
31
087_C12H18N+_1-0-20-17 (75,) energy =    -522.6436731
C           3.7692769     2.1045399    -0.1713400
C           3.8005997     0.6996940    -0.1376684
H           4.7449042     0.1630349    -0.0970418
C           2.6290696    -0.0552588    -0.1766720
H           2.6892975    -1.1393482    -0.1478488
C           1.3882743     0.5780322    -0.2485613
H           0.4739755    -0.0069946    -0.2753357
C           1.3368100     1.9697961    -0.2853207
H           0.3797416     2.4801315    -0.3412238
C           2.5121813     2.7228482    -0.2454104
N           8.0236874     2.7667941    -0.5982390
H           2.4258852     3.8028319    -0.2679595
H           8.1064269     1.7639206    -0.8053959
H           8.9728323     3.1520964    -0.6562553
C           7.1324790     3.4107770    -1.6520404
H           7.6019662     3.2247277    -2.6213963
H           7.1581198     4.4839667    -1.4506166
C           5.7280685     2.8187169    -1.5619181
H           5.7647700     1.7658897    -1.8717846
H           5.1009436     3.3287034    -2.3006322
C           5.0772964     2.9260996    -0.1485715
C           4.8063581     4.4093927     0.1884466
H           5.7273974     4.9921586     0.2947776
C           6.0718679     2.3451776     0.8992122
H           4.2573399     4.4992129     1.1305037
H           6.1527390     1.2578649     0.7992544
H           5.6967094     2.5271164     1.9122744
H           4.2175713     4.8979925    -0.5928804
C           7.4794828     2.9329318     0.8144705
H           8.1776736     2.4253490     1.4848335
H           7.5147878     4.0041045     1.0223728
31
087_C12H18N+_1-0-20-17 (90,) energy =    -522.6428929
C           3.8102543     2.0307455    -0.3569820
C           3.0973382     2.1240454     0.8491787
H           3.4595217     2.7293959     1.6735669
C           1.8879757     1.4506784     1.0317227
H           1.3576198     1.5530831     1.9740498
C           1.3627260     0.6569866     0.0140690
H           0.4211533     0.1348641     0.1545707
C           2.0618375     0.5425772    -1.1868599
H           1.6691881    -0.0723302    -1.9914222
C           3.2681141     1.2189269    -1.3677271
N           7.7403724     3.5146427     0.7575801
H           3.7790020     1.1036829    -2.3173541
H           7.5374077     3.2355869     1.7252951
H           8.6872528     3.9097430     0.7642327
C           7.6959534     2.2750126    -0.1258058
H           8.4313097     1.5730835     0.2757621
H           8.0247620     2.5997287    -1.1155284
C           6.2814971     1.7005858    -0.1281642
H           6.0455747     1.3165221     0.8734419
H           6.2767753     0.8310412    -0.7937589
C           5.1804652     2.7148316    -0.5649421
C           5.3696866     3.1223557    -2.0456902
H           6.2752158     3.7157070    -2.2118067
C           5.3284611     3.9795940     0.3282696
H           4.5203041     3.7211162    -2.3876185
H           5.0666996     3.7523428     1.3671713
H           4.6345596     4.7621343     0.0022528
H           5.4487452     2.2512138    -2.7007348
C           6.7345226     4.5763533     0.3332195
H           6.8263606     5.4012047     1.0442815
H           7.0636835     4.9249730    -0.6473772
31
087_C12H18N+_1-0-20-17 (105,) energy =    -522.6437904
C           3.7549393     2.0366050    -0.3617576
C           2.9277741     2.2906421     0.7419668
H           3.1823074     3.0497228     1.4736320
C           1.7272976     1.5977876     0.9201932
H           1.1023993     1.8269049     1.7785021
C           1.3328692     0.6233822     0.0067187
H           0.4002916     0.0849369     0.1456206
C           2.1505076     0.3470825    -1.0899981
H           1.8600794    -0.4110471    -1.8114483
C           3.3446966     1.0427646    -1.2676407
N           7.7411463     3.4477609     0.6810033
H           3.9586555     0.7971258    -2.1293498
H           7.5894238     3.1160821     1.6414571
H           8.6870465     3.8446408     0.6589407
C           7.6492296     2.2582883    -0.2651869
H           8.3968712     1.5324851     0.0648112
H           7.9363603     2.6350188    -1.2493506
C           6.2330815     1.6888054    -0.2378761
H           6.0350844     1.2532706     0.7507455
H           6.2025886     0.8545813    -0.9463130