22
075_C10H8N2O2_18-0-2-9 (-165,) energy =    -645.8202193
N           1.8019066    -1.3648497    -0.8013027
H           1.9491657    -0.5306169    -1.3518429
C           2.7077648    -1.6545634     0.2221994
C           5.5032847     1.4439182     1.2681558
H           6.2212097     2.2117431     1.5433663
C           5.7742516     0.0999593     1.5395410
H           6.7047692    -0.1798128     2.0255236
C           4.8517634    -0.8825003     1.1908470
H           5.0367513    -1.9301137     1.4041585
C           3.6521088    -0.5348007     0.5537359
C           3.3809308     0.8165461     0.2944607
H           2.4344847     1.1177291    -0.1474180
C           4.3029384     1.8006127     0.6519234
H           4.0784457     2.8455657     0.4571350
O           2.7309046    -2.7246385     0.7993185
C          -1.0328615    -3.3200952    -1.3192923
H          -1.7149380    -4.1250703    -1.0856316
N           0.1007759    -3.0898473    -0.5409244
C           0.6571800    -2.0712108    -1.1150546
O           0.0051840    -1.5913699    -2.2112347
C          -1.0972349    -2.4196008    -2.3259308
H          -1.7681625    -2.2122632    -3.1430316
22
075_C10H8N2O2_18-0-2-9 (-150,) energy =    -645.8182987
N           1.9667832    -1.5173416    -0.9520802
H           2.1027767    -0.6721216    -1.4897812
C           2.8437758    -1.7621048     0.1138697
C           5.3924114     1.4747623     1.3494677
H           6.0469804     2.2785044     1.6754229
C           5.7196416     0.1455552     1.6321277
H           6.6301822    -0.0865929     2.1773787
C           4.8785046    -0.8829618     1.2178974
H           5.1076702    -1.9205600     1.4372271
C           3.7048995    -0.5967559     0.5051046
C           3.3774602     0.7396367     0.2336781
H           2.4480485     0.9920593    -0.2701148
C           4.2177734     1.7700263     0.6562211
H           3.9494442     2.8025740     0.4511396
O           2.8892824    -2.8316963     0.6891436
C          -1.0731003    -3.2038633    -1.1637147
H          -1.8039271    -3.9336721    -0.8456781
N           0.1403032    -3.0612248    -0.4916432
C           0.7352890    -2.1146860    -1.1449358
O           0.0400209    -1.6065982    -2.1998556
C          -1.1404184    -2.3303326    -2.1934075
H          -1.8562159    -2.0834342    -2.9598140
22
075_C10H8N2O2_18-0-2-9 (-135,) energy =    -645.8152111
N           2.0972932    -1.6604273    -1.1195533
H           2.2413330    -0.8143213    -1.6558621
C           2.9672817    -1.8746888    -0.0310249
C           5.2429600     1.4764568     1.4098048
H           5.8276127     2.3098900     1.7896431
C           5.6332081     0.1631235     1.6877422
H           6.5221133    -0.0266538     2.2827991
C           4.8822279    -0.9037691     1.2042441
H           5.1613895    -1.9303786     1.4172674
C           3.7364607    -0.6721205     0.4280785
C           3.3464748     0.6481503     0.1601817
H           2.4366175     0.8554939    -0.3965776
C           4.0963876     1.7170100     0.6515394
H           3.7796556     2.7360920     0.4483006
O           3.0549916    -2.9543048     0.5177878
C          -1.1083328    -3.0222804    -1.0119355
H          -1.8857879    -3.6440951    -0.5914605
N           0.1556050    -2.9554211    -0.4263803
C           0.7973906    -2.1306924    -1.1909508
O           0.0884543    -1.6363886    -2.2418260
C          -1.1566191    -2.2286698    -2.1051480
H          -1.8939512    -1.9661855    -2.8454786
22
075_C10H8N2O2_18-0-2-9 (-120,) energy =    -645.8113121
N           2.2411169    -1.8171374    -1.2588929
H           2.4113394    -0.9898028    -1.8189959
C           3.1146573    -1.9920224    -0.1511876
C           5.0799031     1.4711876     1.4616560
H           5.5845402     2.3348364     1.8861329
C           5.5513068     0.1828562     1.7318747
H           6.4230020     0.0433205     2.3650358
C           4.9028654    -0.9229199     1.1914994
H           5.2455474    -1.9316720     1.3969997
C           3.7798931    -0.7544346     0.3663779
C           3.3094053     0.5405628     0.1041618
H           2.4174636     0.6935873    -0.4967065
C           3.9561791     1.6479380     0.6532358
H           3.5778364     2.6467000     0.4546640
O           3.2646936    -3.0787708     0.3655884
C          -1.0696982    -2.8186478    -0.8301784
H          -1.8739060    -3.3093129    -0.3006630
N           0.2297112    -2.8123186    -0.3228113
C           0.8961574    -2.1463308    -1.2114319
O           0.1717245    -1.7019865    -2.2724432
C          -1.1130244    -2.1479548    -2.0027254
H          -1.8683907    -1.8937266    -2.7275781
22
075_C10H8N2O2_18-0-2-9 (-105,) energy =    -645.8080720
N           2.3127941    -1.6366100    -1.6061706
H           2.5932490    -2.1488845    -2.4418113
C           3.2868096    -1.9485165    -0.5500067
C           4.8508187     1.3452003     1.6730423
H           5.2600719     2.1757212     2.2422159
C           5.2922982     0.0420789     1.9271509
H           6.0415501    -0.1396902     2.6924552
C           4.7693155    -1.0215636     1.2007083
H           5.0940184    -2.0408808     1.3817351
C           3.8021665    -0.7884020     0.2082536
C           3.3610396     0.5195004    -0.0415506
H           2.6165804     0.6910713    -0.8104862
C           3.8862548     1.5821435     0.6914087
H           3.5442899     2.5946057     0.4965064
O           3.7093440    -3.0785657    -0.4373238
C          -0.9318281    -2.2208908    -0.4737565
H          -1.6938247    -2.2621962     0.2915002
N           0.3859811    -1.8808217    -0.1666628
C           0.9897193    -1.9441306    -1.3139118
O           0.2063931    -2.2915574    -2.3644779
C          -1.0476766    -2.4691868    -1.7970051
H          -1.8379099    -2.7607407    -2.4686043
22
075_C10H8N2O2_18-0-2-9 (-90,) energy =    -645.8118914
N           2.4019895    -1.7899537    -1.6708113
H           2.6118457    -2.4182891    -2.4455862
C           3.4107328    -2.0245520    -0.6487245
C           4.6830498     1.3062407     1.7052188
H           5.0219432     2.1469007     2.3049107
C           5.2190092     0.0330758     1.9240363
H           5.9718910    -0.1167789     2.6927118
C           4.7863165    -1.0430581     1.1568128
H           5.1882826    -2.0394349     1.3078247
C           3.8146926    -0.8526604     0.1609052
C           3.2781331     0.4251966    -0.0531476
H           2.5311264     0.5699501    -0.8250316
C           3.7142410     1.5004407     0.7181224
H           3.2995875     2.4900491     0.5485743
O           3.9795144    -3.0969521    -0.6187100
C          -0.8502192    -1.9732414    -0.4200399
H          -1.5927640    -1.8760199     0.3590643
N           0.4988196    -1.7174925    -0.1707619
C           1.0658454    -1.9418824    -1.3161275
O           0.2298520    -2.3222000    -2.3135107
C          -1.0190598    -2.3395066    -1.7096873
H          -1.8466904    -2.6308526    -2.3347248
22
075_C10H8N2O2_18-0-2-9 (-75,) energy =    -645.8156667
N           2.4518976    -1.9341152    -1.6875754
H           2.6065992    -2.6201948    -2.4239679
C           3.5188763    -2.0675588    -0.7326214
C           4.5588787     1.2706845     1.7285590
H           4.8433063     2.1134549     2.3531103
C           5.1617593     0.0241804     1.9219419
H           5.9134526    -0.1040793     2.6957019
C           4.7994312    -1.0535930     1.1205447
H           5.2598740    -2.0277381     1.2474143
C           3.8266278    -0.8941409     0.1212485
C           3.2233719     0.3572522    -0.0676079
H           2.4758237     0.4847448    -0.8416688
C           3.5930823     1.4356426     0.7332385
H           3.1275978     2.4052335     0.5807004
O           4.2195677    -3.0614564    -0.7831330
C          -0.7881050    -1.7816360    -0.3961999
H          -1.5146157    -1.5625543     0.3731610
N           0.5759236    -1.5796694    -0.1812883
C           1.1172848    -1.9510510    -1.2999865
O           0.2488961    -2.3823028    -2.2492396
C          -0.9915224    -2.2669712    -1.6407013
H          -1.8412555    -2.5718859    -2.2285090
22
075_C10H8N2O2_18-0-2-9 (-60,) energy =    -645.8182929
N           2.4797283    -2.0570401    -1.6798819
H           2.6031046    -2.7732633    -2.3911735
C           3.6081204    -2.0730467    -0.8111322
C           4.4691197     1.2434434     1.7505932
H           4.7124258     2.0813417     2.3986418
C           5.1043588     0.0118730     1.9329010
H           5.8413375    -0.1106301     2.7216139
C           4.7961837    -1.0580273     1.0984429
H           5.2893130    -2.0177161     1.2119008
C           3.8378612    -0.9096416     0.0841253
C           3.2034145     0.3272438    -0.0947939
H           2.4702880     0.4525464    -0.8826955
C           3.5244649     1.4001082     0.7340338
H           3.0360899     2.3592185     0.5868428
O           4.4147004    -2.9783908    -0.9402609
C          -0.7367481    -1.6531554    -0.3838868
H          -1.4478467    -1.3448751     0.3690933
N           0.6354680    -1.4891737    -0.1911647
C           1.1545396    -1.9675511    -1.2790654
O           0.2614667    -2.4375733    -2.1880388
C          -0.9681162    -2.2266487    -1.5852480
H          -1.8337023    -2.5421231    -2.1436501
22
075_C10H8N2O2_18-0-2-9 (-45,) energy =    -645.8195555
N           2.4808101    -2.1729917    -1.6322049
H           2.5882841    -2.9070065    -2.3259198
C           3.6608232    -2.0655848    -0.8609071
C           4.4077526     1.2208106     1.7771192
H           4.6257094     2.0513023     2.4434525
C           5.0644680    -0.0010201     1.9459090
H           5.7936678    -0.1239865     2.7417671
C           4.7907645    -1.0604724     1.0860026
H           5.3071440    -2.0094555     1.1854143
C           3.8387101    -0.9151900     0.0658080
C           3.1845505     0.3127526    -0.1008611
H           2.4595179     0.4402278    -0.8958425
C           3.4755621     1.3776229     0.7492454
H           2.9725373     2.3303528     0.6099670
O           4.5427121    -2.8853133    -1.0640151
C          -0.7168843    -1.5590234    -0.3756821
H          -1.4181005    -1.1787705     0.3532420
N           0.6594641    -1.4309447    -0.1873390
C           1.1649963    -1.9928382    -1.2410989
O           0.2567715    -2.4893168    -2.1223842
C          -0.9652931    -2.1997903    -1.5391352
H          -1.8402327    -2.5198888    -2.0800893
22
075_C10H8N2O2_18-0-2-9 (-30,) energy =    -645.8197216
N           2.4756006    -2.2668244    -1.5718997
H           2.5774354    -3.0057634    -2.2597289
C           3.6931239    -2.0435592    -0.9025267
C           4.3956900     1.2016437     1.8016438
H           4.6046805     2.0214207     2.4839428
C           5.0756674    -0.0115053     1.9372709
H           5.8148789    -0.1387939     2.7231785
C           4.8142106    -1.0559227     1.0553976
H           5.3528059    -1.9949646     1.1269971
C           3.8465957    -0.9081816     0.0499184
C           3.1707336     0.3115108    -0.0847027
H           2.4344091     0.4446845    -0.8676527
C           3.4526340     1.3634261     0.7851033
H           2.9326052     2.3101598     0.6693659
O           4.6224537    -2.7886338    -1.1772014
C          -0.7249242    -1.4664753    -0.4358067
H          -1.4307464    -1.0026068     0.2381653
N           0.6502234    -1.3373203    -0.2407587
C           1.1635601    -2.0118783    -1.2224042
O           0.2589250    -2.5861467    -2.0607645
C          -0.9663732    -2.2210024    -1.5304092
H          -1.8384744    -2.5813774    -2.0502078
22
075_C10H8N2O2_18-0-2-9 (-15,) energy =    -645.8191356
N           1.1655842    -2.2404412     0.5212736
H           0.5816731    -2.9187441     0.9984076
C           2.2372474    -1.8469836     1.3388111
C           5.4364310     0.7509378     0.1677792
H           6.2637678     1.4022646    -0.1015504
C           4.9311061     0.7643790     1.4704049
H           5.3636308     1.4235549     2.2178859
C           3.8795137    -0.0792244     1.8156653
H           3.4960072    -0.1051176     2.8301714
C           3.2980001    -0.9180913     0.8521468
C           3.8125620    -0.9328669    -0.4505773
H           3.3862787    -1.5871416    -1.2002120
C           4.8834065    -0.1052909    -0.7856192
H           5.2839282    -0.1287295    -1.7951788
O           2.2558846    -2.3031903     2.4733961
C           0.0362860    -0.8594559    -2.4767335
H           0.0756878    -0.1693254    -3.3072422
N           1.0026997    -0.8334599    -1.4715148
C           0.6353563    -1.7827637    -0.6674259
O          -0.4943815    -2.4447743    -1.0392587
C          -0.8704381    -1.8275261    -2.2192322
H          -1.7613587    -2.2049667    -2.6929534
22
075_C10H8N2O2_18-0-2-9 (0,) energy =    -645.8180705
N           0.9413981    -1.7323852     0.7327260
H           0.2157561    -2.1234600     1.3239463
C           1.9907807    -1.2367849     1.5236795
C           5.5703256     0.6633501     0.1252347
H           6.4883994     1.1478991    -0.1966685
C           5.5884080    -0.2222083     1.2061012
H           6.5180576    -0.4282161     1.7292601
C           4.4096306    -0.8320581     1.6235329
H           4.4005691    -1.4961294     2.4812441
C           3.2056403    -0.5935413     0.9404299
C           3.1910916     0.3015267    -0.1368799
H           2.2708886     0.5072812    -0.6667961
C           4.3707092     0.9307560    -0.5349248
H           4.3495978     1.6303738    -1.3658096
O           1.8835696    -1.4130534     2.7295663
C           0.5082593    -1.8441392    -2.7280676
H           0.8039217    -1.6756027    -3.7535856
N           1.3301112    -1.4602818    -1.6688808
C           0.6604863    -1.8123932    -0.6148760
O          -0.5399523    -2.4021947    -0.8710011
C          -0.6204342    -2.4137109    -2.2518006
H          -1.5123062    -2.8449464    -2.6751648
22
075_C10H8N2O2_18-0-2-9 (15,) energy =    -645.8191347
N           0.8856495    -1.6278216     0.7629684
H           0.1416527    -1.9963265     1.3455316
C           1.9900859    -1.2539953     1.5453539
C           5.5308919     0.6720301     0.0931684
H           6.4384089     1.1659371    -0.2440547
C           5.5867181    -0.2601162     1.1325639
H           6.5356188    -0.4929464     1.6076333
C           4.4213834    -0.8821847     1.5705383
H           4.4410844    -1.5842361     2.3974084
C           3.1938146    -0.6060089     0.9484730
C           3.1419619     0.3341790    -0.0885841
H           2.1998581     0.5706392    -0.5663550
C           4.3076063     0.9747337    -0.5067026
H           4.2588197     1.7099790    -1.3049718
O           1.9167215    -1.4894488     2.7432325
C           0.6278566    -1.9534328    -2.7008634
H           0.9942565    -1.8885525    -3.7153129
N           1.4254502    -1.5752459    -1.6210748
C           0.6669500    -1.7858564    -0.5900965
O          -0.5704256    -2.2744246    -0.8783255
C          -0.5759620    -2.3781865    -2.2581533
H          -1.4812032    -2.7537782    -2.7054679
22
075_C10H8N2O2_18-0-2-9 (30,) energy =    -645.8197215
N           0.8362379    -1.5205146     0.7637606
H           0.0839396    -1.8787148     1.3427687
C           1.9882152    -1.2886997     1.5380366
C           5.5015537     0.6904100     0.0968500
H           6.4016165     1.1983925    -0.2394299
C           5.5777069    -0.2710280     1.1079568
H           6.5349947    -0.5128620     1.5611709
C           4.4221018    -0.9120580     1.5444434
H           4.4572812    -1.6400828     2.3480310
C           3.1840878    -0.6213988     0.9511982
C           3.1122986     0.3464435    -0.0590927
H           2.1603793     0.5930077    -0.5129311
C           4.2680722     1.0038826    -0.4768534
H           4.2045369     1.7606854    -1.2536046
O           1.9400010    -1.6125983     2.7157471
C           0.6904252    -2.0435218    -2.6829614
H           1.1024431    -2.0709830    -3.6815024
N           1.4722898    -1.6687067    -1.5902768
C           0.6560972    -1.7539780    -0.5859213
O          -0.6051081    -2.1544537    -0.9021228
C          -0.5624870    -2.3401794    -2.2731274
H          -1.4764685    -2.6685588    -2.7394168
22
075_C10H8N2O2_18-0-2-9 (45,) energy =    -645.8195555
N           0.8115286    -1.4124862     0.7513268
H           0.0578192    -1.7626108     1.3351964
C           2.0047961    -1.3326612     1.5053980
C           5.4904689     0.7200826     0.1076212
H           6.3833280     1.2460975    -0.2199954
C           5.5832875    -0.2677838     1.0915633
H           6.5461638    -0.5120872     1.5313678
C           4.4375490    -0.9338591     1.5163171
H           4.4848432    -1.6870747     2.2957584
C           3.1926504    -0.6358638     0.9420848
C           3.1043916     0.3572040    -0.0425835
H           2.1452464     0.6061654    -0.4807298
C           4.2503797     1.0361833    -0.4512617
H           4.1751713     1.8117168    -1.2082411
O           1.9785387    -1.7625560     2.6479554
C           0.7210808    -2.1474119    -2.6593612
H           1.1602002    -2.2696860    -3.6390804
N           1.4974374    -1.7709160    -1.5631243
C           0.6456921    -1.7294787    -0.5861339
O          -0.6334223    -2.0444857    -0.9217936
C          -0.5639427    -2.3173318    -2.2775868
H          -1.4867028    -2.6020460    -2.7551483
22
075_C10H8N2O2_18-0-2-9 (60,) energy =    -645.8182928
N           0.8010358    -1.2905948     0.7208341
H           0.0435500    -1.6141391     1.3172081
C           2.0236568    -1.3712835     1.4468031
C           5.4999594     0.7653478     0.1611926
H           6.3897813     1.3111762    -0.1413462
C           5.5924343    -0.2417124     1.1259857
H           6.5523936    -0.4810213     1.5747847
C           4.4512240    -0.9352760     1.5165958
H           4.4977000    -1.7091598     2.2755412
C           3.2097962    -0.6381647     0.9336367
C           3.1220078     0.3724343    -0.0335241
H           2.1651681     0.6147756    -0.4803718
C           4.2645708     1.0739995    -0.4122563
H           4.1906959     1.8618574    -1.1564933
O           2.0064428    -1.9245421     2.5333137
C           0.6792968    -2.2308433    -2.6391898
H           1.1152054    -2.4271950    -3.6082650
N           1.4674510    -1.8234960    -1.5622039
C           0.6150233    -1.6940543    -0.5934832
O          -0.6741904    -1.9744008    -0.9161145
C          -0.6126339    -2.3256336    -2.2549849
H          -1.5451378    -2.5992319    -2.7199103
22
075_C10H8N2O2_18-0-2-9 (75,) energy =    -645.8156667
N           0.8157400    -1.1854796     0.6528718
H           0.0578192    -1.4647192     1.2729452
C           2.0556311    -1.4193688     1.3429347
C           5.5256255     0.8203778     0.2359102
H           6.4136304     1.3899106    -0.0254422
C           5.6102885    -0.2122317     1.1746258
H           6.5619964    -0.4471184     1.6428970
C           4.4729301    -0.9391698     1.5109100
H           4.5135742    -1.7392027     2.2425909
C           3.2412992    -0.6417919     0.9067384
C           3.1617204     0.3932664    -0.0355412
H           2.2112985     0.6285781    -0.4998401
C           4.3018746     1.1227742    -0.3654423
H           4.2356476     1.9276635    -1.0919525
O           2.0383278    -2.1081826     2.3462240
C           0.6128081    -2.3526055    -2.6312127
H           1.0327342    -2.6394300    -3.5846928
N           1.4270883    -1.9241070    -1.5819799
C           0.5856496    -1.6800401    -0.6254786
O          -0.7180738    -1.9010732    -0.9298057
C          -0.6815645    -2.3423666    -2.2436502
H          -1.6302981    -2.5891594    -2.6903433
22
075_C10H8N2O2_18-0-2-9 (90,) energy =    -645.8118914
N           0.8481355    -1.0766989     0.5497687
H           0.0957279    -1.2761156     1.2079752
C           2.0944219    -1.4409072     1.2065744
C           5.5670914     0.8915195     0.3380395
H           6.4558660     1.4823510     0.1326464
C           5.6385409    -0.1911828     1.2204983
H           6.5805604    -0.4429224     1.6994299
C           4.5016750    -0.9474096     1.4842692
H           4.5327158    -1.7910239     2.1658109
C           3.2817733    -0.6236404     0.8685176
C           3.2154646     0.4611887    -0.0176998
H           2.2717636     0.7111050    -0.4885986
C           4.3570328     1.2158646    -0.2793919
H           4.3027764     2.0576902    -0.9637855
O           2.0702931    -2.2633164     2.0996122
C           0.5145318    -2.5284192    -2.6055622
H           0.9033903    -2.9312980    -3.5298488
N           1.3667675    -2.0699081    -1.6001200
C           0.5525262    -1.6782256    -0.6688164
O          -0.7656020    -1.8264804    -0.9496356
C          -0.7724186    -2.3856453    -2.2192701
H          -1.7404848    -2.5998423    -2.6405703
22
075_C10H8N2O2_18-0-2-9 (105,) energy =    -645.8080720
N           0.9079820    -0.9881138     0.3940208
H           0.1638364    -1.0434633     1.0886859
C           2.1483228    -1.4427701     1.0392668
C           5.6203558     0.9797081     0.4796140
H           6.5095727     1.5907792     0.3488574
C           5.6745830    -0.1666979     1.2798732
H           6.6035837    -0.4464002     1.7685794
C           4.5384123    -0.9499969     1.4475718
H           4.5567869    -1.8447711     2.0609656
C           3.3348743    -0.5884516     0.8186923
C           3.2858151     0.5605747     0.0156135
H           2.3529347     0.8338345    -0.4639494
C           4.4282970     1.3409708    -0.1517457
H           4.3887955     2.2309329    -0.7733679
O           2.1187287    -2.3846324     1.8010167
C           0.3670091    -2.7466419    -2.5667747
H           0.6983830    -3.2716260    -3.4513907
N           1.2789008    -2.2439317    -1.6381671
C           0.5218582    -1.6996860    -0.7351950
O          -0.8113230    -1.7847952    -0.9662237
C          -0.8949782    -2.4729758    -2.1685834
H          -1.8877008    -2.6597584    -2.5429254
22
075_C10H8N2O2_18-0-2-9 (120,) energy =    -645.8113121
N           1.1264020    -1.2850907     0.2874522
H           0.9452878    -0.2879099     0.2881987
C           2.4055941    -1.6660765     0.7773987
C           5.5705989     1.2400951     0.7016218
H           6.3844789     1.9599432     0.6887083
C           5.6569624     0.0989114     1.5048163
H           6.5377124    -0.0693989     2.1181179
C           4.6158476    -0.8236599     1.5180276
H           4.6669628    -1.7204637     2.1265881
C           3.4701126    -0.6135789     0.7345830
C           3.3932549     0.5305195    -0.0731214
H           2.5369347     0.6936743    -0.7214599
C           4.4412681     1.4510388    -0.0905959
H           4.3774677     2.3282730    -0.7281179
O           2.6210659    -2.7967874     1.1587178
C          -0.1671392    -3.1547865    -2.3543624
H          -0.1868743    -4.0026569    -3.0241532
N           0.8096743    -3.0407182    -1.3651588
C           0.5146816    -1.9240408    -0.7793609
O          -0.5698376    -1.2721941    -1.2766071
C          -0.9999650    -2.0913172    -2.3092567
H          -1.8637481    -1.7539623    -2.8576028
22
075_C10H8N2O2_18-0-2-9 (135,) energy =    -645.8152121
N           1.2481665    -1.2414585     0.0875815
H           1.0723696    -0.2451209     0.0624388
C           2.5034537    -1.6470764     0.5857355
C           5.6024227     1.3196601     0.8633703
H           6.3996323     2.0538337     0.9418988
C           5.6582799     0.1419838     1.6147186
H           6.4980903    -0.0404584     2.2793048
C           4.6391599    -0.7996438     1.5110374
H           4.6678139    -1.7252776     2.0764076
C           3.5453781    -0.5714833     0.6622378
C           3.4998434     0.6084229    -0.0945457
H           2.6889831     0.7867750    -0.7956167
C           4.5262421     1.5481031     0.0049473
H           4.4879346     2.4535343    -0.5941249
O           2.7305071    -2.7992326     0.8944018
C          -0.3876339    -3.2681169    -2.2271891
H          -0.5265607    -4.1771604    -2.7948151
N           0.6659611    -3.1389878    -1.3224923
C           0.5092912    -1.9444135    -0.8482258
O          -0.5542984    -1.2545884    -1.3425498
C          -1.1263394    -2.1362538    -2.2455081
H          -2.0002798    -1.7843961    -2.7680775
22
075_C10H8N2O2_18-0-2-9 (150,) energy =    -645.8182986
N           1.3732277    -1.2195802    -0.1477904
H           1.1914169    -0.2257342    -0.1828053
C           2.6007206    -1.6406185     0.3824712
C           5.6097573     1.3678047     1.0104397
H           6.3827163     2.1125532     1.1795280
C           5.6366401     0.1580015     1.7100329
H           6.4300468    -0.0394445     2.4254326
C           4.6485786    -0.7970639     1.4897543
H           4.6573461    -1.7473701     2.0132773
C           3.6137775    -0.5501735     0.5756719
C           3.5984659     0.6615426    -0.1302628
H           2.8384942     0.8560984    -0.8825468
C           4.5939018     1.6148079     0.0860055
H           4.5796588     2.5454618    -0.4742596
O           2.8325833    -2.8037672     0.6477322
C          -0.5413451    -3.3746568    -2.1023353
H          -0.7699528    -4.3256775    -2.5618753
N           0.5882985    -3.2163720    -1.3003074
C           0.5280849    -1.9741988    -0.9395920
O          -0.5398568    -1.2778922    -1.4182358
C          -1.2251720    -2.2108233    -2.1779986
H          -2.1225900    -1.8649501    -2.6634989
22
075_C10H8N2O2_18-0-2-9 (165,) energy =    -645.8202196
N           1.5160968    -1.2223342    -0.3981693
H           1.3166524    -0.2322945    -0.4233668
C           2.7080308    -1.6473241     0.1974587
C           5.5964448     1.3990651     1.1366011
H           6.3369769     2.1539164     1.3866725
C           5.5990241     0.1678117     1.7978380
H           6.3412448    -0.0366847     2.5643663
C           4.6529056    -0.8003411     1.4735618
H           4.6445995    -1.7670516     1.9661211
C           3.6834089    -0.5449577     0.4931513
C           3.6937456     0.6882799    -0.1747864
H           2.9891066     0.8904883    -0.9773995
C           4.6472644     1.6547320     0.1458500
H           4.6536924     2.6025509    -0.3850620
O           2.9364133    -2.8132026     0.4544213
C          -0.6248870    -3.4737431    -1.9703071
H          -0.9147899    -4.4505652    -2.3303978
N           0.5855906    -3.2830730    -1.3055930
C           0.5817344    -2.0167810    -1.0328520
O          -0.5199067    -1.3332004    -1.4513825
C          -1.2948435    -2.3029763    -2.0634689
H          -2.2326245    -1.9729187    -2.4786218
22
075_C10H8N2O2_18-0-2-9 (180,) energy =    -645.8208450
N           1.6629074    -1.2372966    -0.6493114
H           1.4485117    -0.2499019    -0.6535928
C           2.8160270    -1.6580076     0.0194062
C           5.5531319     1.4238004     1.2504815
H           6.2531820     2.1877917     1.5774714
C           5.5346130     0.1755143     1.8783729
H           6.2195326    -0.0337107     2.6953389
C           4.6408869    -0.8049252     1.4562571
H           4.6185876    -1.7848457     1.9214213
C           3.7441120    -0.5439068     0.4107859
C           3.7766512     0.7063951    -0.2242550
H           3.1329474     0.9149444    -1.0751664
C           4.6783973     1.6847428     0.1945096
H           4.7032192     2.6463773    -0.3103844
O           3.0422616    -2.8241683     0.2778816
C          -0.6899899    -3.5234176    -1.8195166
H          -1.0413491    -4.5127397    -2.0757589
N           0.5893834    -3.3261103    -1.3022572
C           0.6457451    -2.0451057    -1.1200230
O          -0.4765209    -1.3564333    -1.4721289
C          -1.3355876    -2.3402191    -1.9281665
H          -2.3032812    -2.0098045    -2.2675400
