30
216_C11H15NO2S_4-5-25-26 (-165,) energy =   -1031.5279574
C           0.8833045    -1.5388867     0.0245332
H           0.1565275    -2.3417766    -0.1329557
H           0.9417114    -0.9240495    -0.8776691
S           2.4835067    -2.3696451     0.1784072
N           3.4553303    -0.9881684     0.4475033
C           4.9015020    -1.2418800     0.3013385
H           5.0281879    -2.1872101    -0.2340503
H           5.3571750    -1.3797350     1.2937913
C           3.0721138    -0.2695874     1.6863919
C           1.6674716     0.3321087     1.5665920
H           1.4318274     0.8625271     2.4969834
C           0.5842161    -0.7209895     1.2871471
H          -0.3917038    -0.2365367     1.1639368
H           0.4989987    -1.4076557     2.1370513
H           1.6709315     1.0779243     0.7609131
H           3.8066379     0.5299578     1.8200479
H           3.1417444    -0.9354244     2.5601548
O           2.4296238    -3.2255829     1.3763747
O           2.8886483    -2.9454124    -1.1068959
C           7.1026350     1.7662562    -1.9117950
H           7.6668218     2.5105252    -2.4672309
C           5.8127528     2.0501869    -1.4651027
H           5.3638572     3.0174933    -1.6760032
C           5.0849078     1.0921724    -0.7546335
H           4.0680520     1.3098007    -0.4444259
C           5.6401121    -0.1586758    -0.4716798
C           6.9292691    -0.4421941    -0.9433447
H           7.3660846    -1.4204505    -0.7519430
C           7.6583350     0.5113509    -1.6516391
H           8.6558862     0.2707996    -2.0098090
30
216_C11H15NO2S_4-5-25-26 (-150,) energy =   -1031.5268857
C           1.0680141    -1.3868835    -0.2400312
H           0.4936699    -2.1368727    -0.7925934
H           1.1228310    -0.4693058    -0.8322955
S           2.7531839    -2.0424263    -0.1641188
N           3.4837915    -0.7855710     0.7482476
C           4.9648577    -0.8843680     0.7384117
H           5.3004420    -1.9302276     0.7338166
H           5.2932757    -0.4707472     1.6999158
C           2.8622977    -0.6535634     2.0891392
C           1.4054851    -0.1885234     1.9781501
H           0.9978357    -0.0750108     2.9898648
C           0.5216149    -1.1525081     1.1728145
H          -0.4961721    -0.7529214     1.0905867
H           0.4498741    -2.1176361     1.6870551
H           1.3907668     0.8035256     1.5085696
H           3.4434688     0.1032140     2.6251576
H           2.9303633    -1.5942593     2.6561001
O           2.7141234    -3.2914622     0.6172533
O           3.3666439    -2.0385526    -1.4924545
C           6.9917856     1.3671715    -2.3475016
H           7.5156945     1.9375508    -3.1099393
C           5.7792949     1.8288556    -1.8312401
H           5.3559418     2.7628876    -2.1919815
C           5.1054176     1.0951839    -0.8549918
H           4.1568382     1.4480180    -0.4614657
C           5.6311403    -0.1129988    -0.3856103
C           6.8437286    -0.5718788    -0.9106152
H           7.2569662    -1.5160430    -0.5621475
C           7.5225315     0.1630051    -1.8834172
H           8.4603351    -0.2113573    -2.2854210
30
216_C11H15NO2S_4-5-25-26 (-135,) energy =   -1031.5270102
C           1.1495138    -1.4497317    -0.2685232
H           0.6171306    -2.2311387    -0.8195095
H           1.1933611    -0.5447465    -0.8807231
S           2.8522862    -2.0456875    -0.1245506
N           3.5112236    -0.7411030     0.7733994
C           4.9973331    -0.7815345     0.8057240
H           5.3721607    -1.8119147     0.8695183
H           5.2804050    -0.2980627     1.7482093
C           2.8476510    -0.6015982     2.0932060
C           1.3799265    -0.1891884     1.9291270
H           0.9383575    -0.0668191     2.9254935
C           0.5529947    -1.2005820     1.1214087
H          -0.4743252    -0.8370932     0.9996182
H           0.4973554    -2.1552768     1.6566385
H           1.3466363     0.7907536     1.4357720
H           3.3867316     0.1869104     2.6275860
H           2.9308307    -1.5260189     2.6844023
O           2.8311407    -3.2741730     0.6898381
O           3.5050637    -2.0585081    -1.4340692
C           6.9720758     1.3504119    -2.3939445
H           7.4802983     1.8922985    -3.1871790
C           5.9031286     1.9398207    -1.7140177
H           5.5777626     2.9432109    -1.9768457
C           5.2510358     1.2442965    -0.6972774
H           4.4119434     1.6986004    -0.1769478
C           5.6543067    -0.0501834    -0.3480194
C           6.7192050    -0.6355867    -1.0382507
H           7.0294238    -1.6470937    -0.7869921
C           7.3779172     0.0600634    -2.0538058
H           8.2008124    -0.4114465    -2.5845050
30
216_C11H15NO2S_4-5-25-26 (-120,) energy =   -1031.5268849
C           1.2059644    -1.5859320    -0.3111500
H           0.6967367    -2.4122578    -0.8166468
H           1.2713634    -0.7327549    -0.9918585
S           2.9031135    -2.1575272    -0.0516265
N           3.5182653    -0.7837258     0.7618629
C           5.0064760    -0.7819527     0.8299526
H           5.4051107    -1.8018526     0.9015208
H           5.2574898    -0.2896704     1.7759679
C           2.8075921    -0.5425574     2.0410174
C           1.3459381    -0.1529967     1.7885805
H           0.8645190     0.0433818     2.7542423
C           0.5551155    -1.2300703     1.0307556
H          -0.4676724    -0.8836978     0.8402889
H           0.4808995    -2.1397739     1.6374149
H           1.3292286     0.7848587     1.2187762
H           3.3242427     0.2887251     2.5305807
H           2.8703414    -1.4163266     2.7071901
O           2.8503847    -3.3196996     0.8535838
O           3.6114468    -2.2707739    -1.3280061
C           6.9285665     1.3670507    -2.3912559
H           7.4195141     1.9110592    -3.1938981
C           6.0478967     2.0286931    -1.5313041
H           5.8528226     3.0900154    -1.6623634
C           5.4210678     1.3295053    -0.5014768
H           4.7327738     1.8472533     0.1628510
C           5.6605108    -0.0382892    -0.3168573
C           6.5368285    -0.6929112    -1.1863711
H           6.7120264    -1.7585277    -1.0648314
C           7.1708589     0.0046559    -2.2164759
H           7.8469649    -0.5199348    -2.8863239
30
216_C11H15NO2S_4-5-25-26 (-105,) energy =   -1031.5284030
C           1.0713126    -2.3328639     0.2289570
H           0.5074279    -3.2577625     0.3846402
H           1.0834770    -2.0929389    -0.8376625
S           2.7763969    -2.7382626     0.6777037
N           3.4901254    -1.2035679     0.4178363
C           4.9779214    -1.2804260     0.3900320
H           5.2321829    -2.2478125    -0.0453980
H           5.3723150    -1.2619215     1.4177290
C           2.9012149    -0.1626326     1.2872505
C           1.4249647     0.0781731     0.9471252
H           1.0416335     0.8696899     1.6022960
C           0.5535488    -1.1773135     1.0924541
H          -0.4795070    -0.9581480     0.7968970
H           0.5286265    -1.5026475     2.1387574
H           1.3635185     0.4510110    -0.0831804
H           3.4582243     0.7556100     1.0931854
H           3.0274304    -0.4190129     2.3510269
O           2.7907440    -3.1015551     2.1060829
O           3.3505420    -3.6592488    -0.3097779
C           6.9559674     1.7864255    -1.9423943
H           7.4687779     2.5454154    -2.5270451
C           6.4772118     2.0876570    -0.6665525
H           6.6263296     3.0794586    -0.2478460
C           5.8274878     1.1089325     0.0869821
H           5.5136266     1.3440316     1.1008708
C           5.6146381    -0.1768888    -0.4317285
C           6.1368085    -0.4753522    -1.6975432
H           6.0119600    -1.4780270    -2.0991686
C           6.7919191     0.4977243    -2.4526821
H           7.1823563     0.2458956    -3.4351097
30
216_C11H15NO2S_4-5-25-26 (-90,) energy =   -1031.5309394
C           1.1316760    -2.3567426     0.2527621
H           0.5624281    -3.2698642     0.4523448
H           1.1781215    -2.1897641    -0.8267876
S           2.8221631    -2.7290231     0.7811163
N           3.5381638    -1.2118738     0.4480990
C           5.0245176    -1.2660659     0.4833450
H           5.3134702    -2.2444046     0.0947750
H           5.3833878    -1.1957110     1.5213257
C           2.9211510    -0.1148088     1.2249991
C           1.4589739     0.1006277     0.8169216
H           1.0516345     0.9334303     1.4027255
C           0.5855938    -1.1461582     1.0184058
H          -0.4381648    -0.9520889     0.6766342
H           0.5281964    -1.3996794     2.0832372
H           1.4333721     0.4020872    -0.2379509
H           3.4942161     0.7865143     0.9934414
H           3.0068440    -0.3025173     2.3069320
O           2.7910910    -3.0041186     2.2286962
O           3.4305794    -3.7056824    -0.1292758
C           6.8797066     1.8032885    -1.9340000
H           7.3555886     2.5672948    -2.5428999
C           6.6232784     2.0423115    -0.5836813
H           6.9039313     2.9910499    -0.1339908
C           6.0193571     1.0550222     0.1979161
H           5.8537038     1.2353275     1.2579564
C           5.6466718    -0.1742112    -0.3609935
C           5.9302236    -0.4103104    -1.7130365
H           5.6640448    -1.3689866    -2.1516567
C           6.5357380     0.5714272    -2.4962447
H           6.7479299     0.3724750    -3.5433744
30
216_C11H15NO2S_4-5-25-26 (-75,) energy =   -1031.5323547
C           1.1827170    -2.4158926     0.2309995
H           0.6170206    -3.3267145     0.4501800
H           1.2694131    -2.2978688    -0.8525405
S           2.8561929    -2.7404149     0.8398891
N           3.5621505    -1.2289823     0.4646702
C           5.0438153    -1.2451441     0.5625581
H           5.3721369    -2.2293992     0.2201832
H           5.3648980    -1.1280107     1.6083365
C           2.9021838    -0.1060475     1.1672769
C           1.4554807     0.0709735     0.6928400
H           1.0141643     0.9227572     1.2241760
C           0.5917551    -1.1789756     0.9176145
H          -0.4203607    -1.0165644     0.5280382
H           0.4959699    -1.3839865     1.9901199
H           1.4673800     0.3245275    -0.3748035
H           3.4790875     0.7899438     0.9214254
H           2.9457070    -0.2468408     2.2586183
O           2.7737085    -2.9507281     2.2961206
O           3.5127917    -3.7462906    -0.0025242
C           6.8414544     1.8079149    -1.9138437
H           7.2997863     2.5691923    -2.5394340
C           6.8033030     1.9688658    -0.5292637
H           7.2326310     2.8553005    -0.0699112
C           6.2175483     0.9851437     0.2719853
H           6.2029933     1.1065134     1.3531344
C           5.6596826    -0.1638686    -0.2992868
C           5.7104189    -0.3190510    -1.6917160
H           5.2843253    -1.2124599    -2.1414700
C           6.2941921     0.6594667    -2.4937876
H           6.3295271     0.5248519    -3.5716744
30
216_C11H15NO2S_4-5-25-26 (-60,) energy =   -1031.5328717
C           0.8817615    -0.5820608     1.1823174
H          -0.1551770    -0.9319319     1.1848989
H           0.9016395     0.4818878     0.9310351
S           1.6673522    -1.4439872    -0.2024306
N           3.2524535    -0.8284800    -0.0191164
C           4.1213878    -1.1103837    -1.1858265
H           3.4882607    -1.0412836    -2.0750290
H           4.5214818    -2.1341810    -1.1404061
C           3.8489297    -1.1748376     1.2911952
C           3.0923179    -0.5004563     2.4404535
H           3.5790154    -0.7682681     3.3859522
C           1.6091063    -0.8955954     2.4952557
H           1.1029942    -0.3606579     3.3077971
H           1.5115325    -1.9671680     2.7043296
H           3.1811363     0.5873962     2.3260075
H           4.8789122    -0.8076299     1.2629851
H           3.8838977    -2.2667844     1.4284582
O           1.6146080    -2.8897118     0.0773096
O           1.1489965    -0.9310961    -1.4753821
C           7.3469699     1.7500158    -1.5087032
H           8.1557195     2.4701651    -1.5997570
C           7.6305792     0.3921474    -1.3682049
H           8.6611978     0.0479195    -1.3474167
C           6.5876354    -0.5307402    -1.2512990
H           6.8125188    -1.5898272    -1.1449605
C           5.2543963    -0.1090504    -1.2772473
C           4.9793105     1.2584876    -1.4187060
H           3.9447686     1.5907734    -1.4361352
C           6.0170001     2.1812065    -1.5330822
H           5.7901576     3.2381581    -1.6460094
30
216_C11H15NO2S_4-5-25-26 (-45,) energy =   -1031.5327338
C           0.8467162    -0.6109862     1.1110768
H          -0.1791249    -0.9920668     1.1012474
H           0.8424882     0.4395007     0.8076755
S           1.6981959    -1.5151652    -0.2058374
N           3.2583555    -0.8400746    -0.0093894
C           4.1699422    -1.1547792    -1.1306271
H           3.5636836    -1.1427650    -2.0421934
H           4.5894337    -2.1668094    -1.0286970
C           3.8244352    -1.1081180     1.3335791
C           3.0154524    -0.4024949     2.4268123
H           3.4809271    -0.6106594     3.3976203
C           1.5428667    -0.8380632     2.4582725
H           0.9974576    -0.2796925     3.2284762
H           1.4694882    -1.9006517     2.7170562
H           3.0771229     0.6809750     2.2629429
H           4.8448095    -0.7146617     1.3170916
H           3.8833834    -2.1910481     1.5226309
O           1.6844640    -2.9454168     0.1474218
O           1.2003352    -1.0853834    -1.5166188
C           7.3627598     1.7375644    -1.5374964
H           8.1629188     2.4642150    -1.6502938
C           7.6346267     0.3725365    -1.6271979
H           8.6497941     0.0288849    -1.8074340
C           6.6034438    -0.5574095    -1.4757633
H           6.8224876    -1.6210325    -1.5405852
C           5.2890421    -0.1370598    -1.2449899
C           5.0254396     1.2362932    -1.1530719
H           4.0079756     1.5669361    -0.9658721
C           6.0543771     2.1659057    -1.2980085
H           5.8350397     3.2280946    -1.2263026
30
216_C11H15NO2S_4-5-25-26 (-30,) energy =   -1031.5320936
C           0.8202686    -0.6312260     1.0767017
H          -0.2007538    -1.0237579     1.0438966
H           0.8175003     0.4056903     0.7296978
S           1.7309283    -1.5801023    -0.1668843
N           3.2745321    -0.8742984     0.0576978
C           4.2311550    -1.2249269    -1.0104170
H           3.6541527    -1.3089940    -1.9378282
H           4.6889273    -2.2079562    -0.8236921
C           3.7931071    -1.0785817     1.4312474
C           2.9343048    -0.3430540     2.4652393
H           3.3644684    -0.5090549     3.4601368
C           1.4662875    -0.7950501     2.4577073
H           0.8857529    -0.2124153     3.1829420
H           1.3940970    -1.8470173     2.7567858
H           2.9898108     0.7346285     2.2643631
H           4.8075911    -0.6697241     1.4363069
H           3.8606108    -2.1519927     1.6655801
O           1.7241275    -2.9929475     0.2503843
O           1.2771260    -1.2174586    -1.5131887
C           7.3409769     1.7308650    -1.5911259
H           8.1237040     2.4682555    -1.7476278
C           7.5804656     0.3829732    -1.8638550
H           8.5524558     0.0644892    -2.2312957
C           6.5759893    -0.5622358    -1.6533223
H           6.7724454    -1.6127828    -1.8575717
C           5.3147786    -0.1745572    -1.1843163
C           5.0840814     1.1783690    -0.9088353
H           4.1094592     1.4831803    -0.5403939
C           6.0905665     2.1239696    -1.1109349
H           5.8960647     3.1711163    -0.8934683
30
216_C11H15NO2S_4-5-25-26 (-15,) energy =   -1031.5309563
C           0.8206256    -0.6069811     0.9437436
H          -0.1988412    -0.9977828     0.8689911
H           0.8387531     0.4219610     0.5742463
S           1.7889863    -1.5853565    -0.2311959
N           3.3206702    -0.8736457     0.0523364
C           4.3286887    -1.2469248    -0.9568851
H           3.7930100    -1.4217825    -1.8962654
H           4.8202636    -2.1939317    -0.6872047
C           3.7706561    -1.0503226     1.4542408
C           2.8638762    -0.2931092     2.4300539
H           3.2438770    -0.4403433     3.4480573
C           1.3966604    -0.7423018     2.3584901
H           0.7826613    -0.1429148     3.0412470
H           1.3063925    -1.7873838     2.6760677
H           2.9313393     0.7807508     2.2124008
H           4.7852954    -0.6444303     1.5017387
H           3.8229723    -2.1189249     1.7128322
O           1.7612500    -2.9874286     0.2200382
O           1.4021591    -1.2563593    -1.6064719
C           7.3612491     1.7665815    -1.6555298
H           8.1285786     2.5136223    -1.8397328
C           7.5382197     0.4537148    -2.0990338
H           8.4448099     0.1734879    -2.6289884
C           6.5558783    -0.5046069    -1.8550880
H           6.7057235    -1.5277853    -2.1943542
C           5.3750241    -0.1660768    -1.1803212
C           5.2082735     1.1486236    -0.7349612
H           4.2930135     1.4189075    -0.2179601
C           6.1947429     2.1090696    -0.9723037
H           6.0477435     3.1276319    -0.6221593
30
216_C11H15NO2S_4-5-25-26 (0,) energy =   -1031.5295144
C           0.8678017    -0.6278177     0.8230703
H          -0.1488851    -1.0137267     0.7004725
H           0.9129716     0.3948963     0.4390046
S           1.8923099    -1.6307439    -0.2811644
N           3.4082765    -0.9179449     0.0711386
C           4.4678815    -1.2931085    -0.8822873
H           3.9810967    -1.5781243    -1.8205155
H           5.0094571    -2.1816004    -0.5231176
C           3.7838374    -1.0790394     1.4967911
C           2.8311860    -0.3046495     2.4140515
H           3.1544756    -0.4430499     3.4527028
C           1.3665693    -0.7451595     2.2686669
H           0.7211968    -0.1317757     2.9086954
H           1.2517959    -1.7847605     2.5960855
H           2.9169927     0.7665204     2.1892991
H           4.7976566    -0.6798612     1.5937960
H           3.8152384    -2.1444111     1.7714590
O           1.8344570    -3.0235728     0.1951463
O           1.5821429    -1.3281735    -1.6814740
C           7.3616731     1.8176233    -1.7365944
H           8.0981598     2.5856819    -1.9566442
C           7.4666682     0.5533265    -2.3225518
H           8.2857077     0.3330394    -3.0022025
C           6.5223873    -0.4302916    -2.0361212
H           6.6150253    -1.4142652    -2.4921341
C           5.4508900    -0.1679382    -1.1706636
C           5.3555583     1.0975729    -0.5864601
H           4.5179819     1.3191496     0.0670720
C           6.3035652     2.0848946    -0.8695453
H           6.2096259     3.0658867    -0.4107664
30
216_C11H15NO2S_4-5-25-26 (15,) energy =   -1031.5280607
C           0.8834927    -0.6057240     0.7219372
H          -0.1308728    -0.9715953     0.5353996
H           0.9761938     0.4122002     0.3337961
S           1.9590649    -1.6397096    -0.3021037
N           3.4602356    -0.9523950     0.1439745
C           4.5749858    -1.3289637    -0.7465219
H           4.1520101    -1.7396792    -1.6680165
H           5.1631900    -2.1359723    -0.2841014
C           3.7386241    -1.1126419     1.5913870
C           2.7440515    -0.3115112     2.4389868
H           2.9937001    -0.4499318     3.4977770
C           1.2826836    -0.7207873     2.1984766
H           0.6104341    -0.0877110     2.7897674
H           1.1230282    -1.7546949     2.5250331
H           2.8681648     0.7559012     2.2141361
H           4.7523255    -0.7355176     1.7550316
H           3.7286202    -2.1763455     1.8742123
O           1.8414693    -3.0256561     0.1835317
O           1.7502043    -1.3487318    -1.7231816
C           7.3011311     1.8678265    -1.8085021
H           7.9995397     2.6555186    -2.0778268
C           7.3145154     0.6502864    -2.4932095
H           8.0224953     0.4868219    -3.3014669
C           6.4155909    -0.3568502    -2.1466501
H           6.4314074    -1.3020735    -2.6859438
C           5.4849133    -0.1668073    -1.1158861
C           5.4800329     1.0539340    -0.4356710
H           4.7452028     1.2285383     0.3436515
C           6.3792243     2.0659632    -0.7814728
H           6.3542686     3.0120626    -0.2467485
30
216_C11H15NO2S_4-5-25-26 (30,) energy =   -1031.5268736
C           0.9341712    -0.5606578     0.6016951
H          -0.0739059    -0.8945915     0.3373499
H           1.0862435     0.4560124     0.2293516
S           2.0529839    -1.6212844    -0.3460362
N           3.5352786    -0.9866492     0.2190820
C           4.7032328    -1.3678997    -0.6053199
H           4.3538456    -1.9100697    -1.4882742
H           5.3268768    -2.0719591    -0.0358188
C           3.6988947    -1.1646482     1.6812683
C           2.6690891    -0.3336537     2.4553993
H           2.8332593    -0.4809874     3.5296265
C           1.2178026    -0.6951778     2.1032267
H           0.5237327    -0.0431713     2.6468450
H           1.0012987    -1.7247764     2.4100668
H           2.8440884     0.7290632     2.2427425
H           4.7083885    -0.8217917     1.9261360
H           3.6323978    -2.2283370     1.9567214
O           1.8540186    -3.0059323     0.1169220
O           1.9651763    -1.3166374    -1.7766358
C           7.2307675     1.8943861    -1.9225943
H           7.8810536     2.6995905    -2.2536474
C           7.1285614     0.7200493    -2.6700343
H           7.6959766     0.6069640    -3.5900559
C           6.2884177    -0.3088337    -2.2441462
H           6.2084688    -1.2179721    -2.8365086
C           5.5377654    -0.1846188    -1.0684218
C           5.6472570     0.9964385    -0.3266737
H           5.0514719     1.1243995     0.5719854
C           6.4840279     2.0297497    -0.7514966
H           6.5499698     2.9434775    -0.1663370
30
216_C11H15NO2S_4-5-25-26 (45,) energy =   -1031.5270126
C           1.0280552    -0.3341338     0.6172723
H           0.0855809    -0.4744535     0.0790479
H           1.3203940     0.7180485     0.5606776
S           2.2614501    -1.2527219    -0.3368530
N           3.6318271    -0.9567075     0.6527054
C           4.8986891    -1.3411616    -0.0226905
H           4.7758249    -2.2515553    -0.6246744
H           5.5906444    -1.6051498     0.7861285
C           3.4443987    -1.5086924     2.0171231
C           2.3275342    -0.7673178     2.7612754
H           2.2456921    -1.1840394     3.7723782
C           0.9661003    -0.8590323     2.0561337
H           0.2156478    -0.2788780     2.6062148
H           0.6208757    -1.8989966     2.0368543
H           2.6176843     0.2860813     2.8658917
H           4.3920096    -1.3581752     2.5437104
H           3.2442001    -2.5904320     1.9883898
O           1.8925001    -2.6791035    -0.2937849
O           2.4976264    -0.6060519    -1.6280269
C           6.7886307     1.7715964    -2.3502013
H           7.2809638     2.5485639    -2.9290166
C           6.6993659     0.4732504    -2.8518585
H           7.1173605     0.2339606    -3.8261151
C           6.0612215    -0.5217298    -2.1087465
H           5.9794416    -1.5292101    -2.5100882
C           5.5109973    -0.2332094    -0.8569245
C           5.6021001     1.0729973    -0.3612206
H           5.1580265     1.3086713     0.6020854
C           6.2338918     2.0696604    -1.1029297
H           6.2946190     3.0806225    -0.7078425
30
216_C11H15NO2S_4-5-25-26 (60,) energy =   -1031.5268946
C           1.1088104    -0.4278244     0.4873046
H           0.1837899    -0.6374241    -0.0586624
H           1.3642138     0.6288980     0.3702646
S           2.3953618    -1.3586172    -0.3803273
N           3.7288513    -0.9479152     0.6125144
C           5.0317281    -1.3017428    -0.0172194
H           4.9543268    -2.2228914    -0.6092302
H           5.7059716    -1.5300407     0.8156239
C           3.5356976    -1.4226658     2.0047713
C           2.3764614    -0.6798597     2.6800529
H           2.2868970    -1.0371405     3.7130664
C           1.0348676    -0.8644404     1.9550758
H           0.2530812    -0.2786089     2.4530625
H           0.7263581    -1.9153058     1.9942802
H           2.6264190     0.3879002     2.7247444
H           4.4656424    -1.2028588     2.5383246
H           3.3769524    -2.5110600     2.0402981
O           2.0748026    -2.7918432    -0.2533085
O           2.6373228    -0.7894351    -1.7071753
C           6.8164830     1.8583006    -2.3644230
H           7.2780168     2.6491459    -2.9498612
C           6.5127467     0.6326971    -2.9569025
H           6.7311321     0.4655910    -4.0082872
C           5.9171387    -0.3807316    -2.2033924
H           5.6645577    -1.3279830    -2.6726532
C           5.6231614    -0.1838715    -0.8516500
C           5.9308635     1.0501599    -0.2648322
H           5.6962317     1.2167763     0.7840098
C           6.5207824     2.0661792    -1.0145183
H           6.7532865     3.0192544    -0.5462743
30
216_C11H15NO2S_4-5-25-26 (75,) energy =   -1031.5280761
C           0.9076437    -1.1179938     0.4600337
H          -0.0048957    -1.6977096     0.2902575
H           0.9004161    -0.2356562    -0.1855282
S           2.2560579    -2.1691999    -0.1320570
N           3.5682372    -1.1397910     0.2432109
C           4.8291534    -1.5368191    -0.4404715
H           4.5566224    -2.1530014    -1.2986441
H           5.4309858    -2.1616474     0.2361768
C           3.6636590    -0.8587425     1.6915408
C           2.4514641    -0.0568292     2.1812972
H           2.5728113     0.1416750     3.2530398
C           1.1139486    -0.7716291     1.9392847
H           0.2811829    -0.1378600     2.2669465
H           1.0673443    -1.6958068     2.5266393
H           2.4484037     0.9133521     1.6684784
H           4.5647101    -0.2596565     1.8356167
H           3.7824085    -1.7906712     2.2661921
O           2.2695751    -3.3883702     0.6958878
O           2.2019967    -2.2886442    -1.5934827
C           6.9751567     1.9426964    -1.8692452
H           7.4993952     2.8215682    -2.2348494
C           6.2455004     1.1429705    -2.7501388
H           6.1963332     1.3971650    -3.8056425
C           5.5728501     0.0160663    -2.2770550
H           4.9891013    -0.5930010    -2.9628921
C           5.6279350    -0.3413814    -0.9232193
C           6.3619710     0.4723297    -0.0488724
H           6.4506356     0.2019903     1.0003533
C           7.0322259     1.6035315    -0.5164352
H           7.6046455     2.2156102     0.1756676
30
216_C11H15NO2S_4-5-25-26 (90,) energy =   -1031.5308837
C           0.8538441    -1.3306514     0.4189532
H           0.0035141    -2.0170121     0.3596421
H           0.7417439    -0.5513779    -0.3397316
S           2.2907165    -2.3145375    -0.0738446
N           3.5000862    -1.1207327     0.1188527
C           4.7876165    -1.5067770    -0.5177805
H           4.5374404    -2.0872632    -1.4078957
H           5.3654871    -2.1572026     0.1563388
C           3.5911122    -0.6309046     1.5111982
C           2.3127552     0.1083560     1.9243544
H           2.4341228     0.4674574     2.9534362
C           1.0521079    -0.7631990     1.8291206
H           0.1643656    -0.1771267     2.0955596
H           1.1139475    -1.5965685     2.5384015
H           2.1996975     0.9916396     1.2830400
H           4.4316542     0.0666965     1.5384303
H           3.8130099    -1.4569438     2.2050723
O           2.4474562    -3.4040475     0.9061681
O           2.2171337    -2.6316040    -1.5045768
C           7.0306930     2.0206222    -1.6272324
H           7.5856590     2.9116676    -1.9082663
C           6.1108122     1.4574766    -2.5153681
H           5.9477347     1.9100447    -3.4899013
C           5.4008980     0.3130767    -2.1547382
H           4.6781165    -0.1183012    -2.8430382
C           5.6046992    -0.2935571    -0.9078114
C           6.5265103     0.2823567    -0.0241837
H           6.7131051    -0.1882562     0.9388296
C           7.2378671     1.4303175    -0.3803344
H           7.9560131     1.8581485     0.3141807
30
216_C11H15NO2S_4-5-25-26 (105,) energy =   -1031.5323529
C           0.8154270    -1.3461776     0.4377666
H          -0.0225858    -2.0496171     0.4143130
H           0.6994135    -0.6207440    -0.3720416
S           2.2746797    -2.3348495     0.0258629
N           3.4590176    -1.1084972     0.1560079
C           4.7682226    -1.5084337    -0.4191220
H           4.5529653    -2.1329842    -1.2895171
H           5.3378888    -2.1170766     0.2988590
C           3.5239430    -0.5259939     1.5148867
C           2.2292343     0.2175649     1.8617341
H           2.3299006     0.6465418     2.8659521
C           0.9860144    -0.6827331     1.8093659
H           0.0839809    -0.0981040     2.0263323
H           1.0545959    -1.4661055     2.5729731
H           2.1093718     1.0539150     1.1614187
H           4.3587288     0.1803655     1.5053818
H           3.7466627    -1.3021661     2.2636721
O           2.4382800    -3.3567359     1.0749495
O           2.2260827    -2.7423410    -1.3827444
C           7.0287128     1.9799464    -1.6049351
H           7.5937796     2.8579693    -1.9062156
C           5.9370499     1.5526361    -2.3668022
H           5.6524277     2.0980292    -3.2627627
C           5.2139888     0.4252575    -1.9822754
H           4.3616586     0.0953387    -2.5710621
C           5.5733672    -0.2960927    -0.8351426
C           6.6639420     0.1428338    -0.0762599
H           6.9561445    -0.4126671     0.8125156
C           7.3910435     1.2732896    -0.4586855
H           8.2391831     1.5979426     0.1382613
30
216_C11H15NO2S_4-5-25-26 (120,) energy =   -1031.5328616
C           0.8162863    -1.4130970     0.3807795
H          -0.0014874    -2.1401963     0.3665834
H           0.7025857    -0.7273607    -0.4632387
S           2.3125146    -2.3776145     0.0511064
N           3.4589887    -1.1136946     0.1621398
C           4.7957562    -1.4976038    -0.3495469