24
009_C11H10N2O_5-6-10-9 (-165,) energy =    -609.9285762
N           0.8681590     1.0232759     0.2602253
C          -0.3039655     1.5392612    -0.1301135
C          -1.4251711     0.7642227    -0.4186183
C          -1.3082627    -0.6210952    -0.3130312
C          -0.0882588    -1.1666118     0.0793153
C           0.9828487    -0.3108390     0.3687288
C           2.2950663    -0.8801394     0.8801412
C           6.0044829     0.8782300    -0.4621826
C           6.0026007    -0.3579020     0.1218278
C           4.7968964    -0.9793706     0.5511947
C           3.6106831    -0.3148766     0.3625772
N           3.6290773     0.9243267    -0.1997528
C           4.7729725     1.6187818    -0.6552466
O           4.6515996     2.7396524    -1.1441639
H          -0.3398151     2.6234116    -0.2130664
H          -2.3548737     1.2340497    -0.7235109
H          -2.1517530    -1.2680493    -0.5380783
H           0.0360386    -2.2421718     0.1646250
H           2.2972577    -0.7386638     1.9723071
H           2.3035664    -1.9631116     0.7233163
H           6.9181491     1.3618748    -0.7890573
H           6.9429483    -0.8859930     0.2647269
H           4.8046642    -1.9656501     1.0015796
H           2.7474416     1.4381248    -0.2409711
24
009_C11H10N2O_5-6-10-9 (-150,) energy =    -609.9308377
N           0.8221748     1.0566092     0.3749968
C          -0.3286161     1.5229806    -0.1234277
C          -1.3758907     0.7007160    -0.5368198
C          -1.2045533    -0.6790515    -0.4403644
C          -0.0043336    -1.1740726     0.0664853
C           0.9880286    -0.2739879     0.4716396
C           2.2889818    -0.7669268     1.0809296
C           5.9484405     0.8226961    -0.5563512
C           5.9241385    -0.4513282    -0.0627260
C           4.7301889    -1.0294600     0.4554762
C           3.5829848    -0.2783307     0.4515012
N           3.6263334     0.9976303    -0.0253651
C           4.7558700     1.6496066    -0.5676813
O           4.6599162     2.8032341    -0.9791969
H          -0.4115396     2.6056327    -0.1913402
H          -2.2922967     1.1326041    -0.9264178
H          -1.9897135    -1.3599805    -0.7575124
H           0.1633877    -2.2437622     0.1502927
H           2.2951181    -0.4464467     2.1339761
H           2.3022253    -1.8602610     1.0912795
H           6.8523332     1.2718584    -0.9523316
H           6.8354922    -1.0453959    -0.0634193
H           4.7180299    -2.0438421     0.8374601
H           2.7667069     1.5475219     0.0133800
24
009_C11H10N2O_5-6-10-9 (-135,) energy =    -609.9320746
N           0.7926192     1.0818199     0.4354376
C          -0.3323524     1.5020550    -0.1542285
C          -1.3104131     0.6374995    -0.6451921
C          -1.0944520    -0.7340720    -0.5262065
C           0.0798536    -1.1818715     0.0771897
C           1.0004085    -0.2417190     0.5511816
C           2.2855755    -0.6632662     1.2427682
C           5.8859252     0.7780120    -0.6354474
C           5.8128435    -0.5278924    -0.2416730
C           4.6367649    -1.0617100     0.3612386
C           3.5632498    -0.2317764     0.5494951
N           3.6523937     1.0734961     0.1609073
C           4.7641228     1.6836216    -0.4595298
O           4.7130543     2.8659713    -0.7879703
H          -0.4538132     2.5804391    -0.2329686
H          -2.2094291     1.0319071    -1.1082122
H          -1.8262972    -1.4455465    -0.8989277
H           0.2816040    -2.2437888     0.1820179
H           2.2790800    -0.2260180     2.2517634
H           2.3072711    -1.7493691     1.3656428
H           6.7743862     1.1936476    -1.0975191
H           6.6684245    -1.1830312    -0.3904994
H           4.5861902    -2.0991708     0.6706207
H           2.8240229     1.6591705     0.2709811
24
009_C11H10N2O_5-6-10-9 (-120,) energy =    -609.9318548
N           0.7553538     1.1056086     0.4819022
C          -0.3399148     1.4751887    -0.1909653
C          -1.2423334     0.5685068    -0.7477849
C          -0.9811457    -0.7926507    -0.6026656
C           0.1626746    -1.1891718     0.0891602
C           1.0054599    -0.2081475     0.6196290
C           2.2699066    -0.5579240     1.3854522
C           5.8041436     0.7361445    -0.7073686
C           5.6581671    -0.5879272    -0.4065565
C           4.5063612    -1.0758989     0.2779847
C           3.5383121    -0.1819090     0.6496650
N           3.6936573     1.1393145     0.3383013
C           4.7844199     1.7089509    -0.3541532
O           4.7976089     2.9119090    -0.5996347
H          -0.5020125     2.5471594    -0.2843823
H          -2.1200237     0.9234767    -1.2787598
H          -1.6548457    -1.5350227    -1.0219211
H           0.3996343    -2.2411750     0.2178900
H           2.2443985    -0.0272234     2.3466140
H           2.2966000    -1.6290272     1.6034307
H           6.6737043     1.1174927    -1.2308514
H           6.4341337    -1.2936438    -0.6948987
H           4.4001500    -2.1271013     0.5191056
H           2.9161945     1.7693968     0.5291745
24
009_C11H10N2O_5-6-10-9 (-105,) energy =    -609.9303028
N           0.7310018     1.1198614     0.4818374
C          -0.3432138     1.4320115    -0.2509140
C          -1.1836943     0.4804848    -0.8303680
C          -0.8815851    -0.8664133    -0.6388696
C           0.2400540    -1.2050115     0.1171913
C           1.0193930    -0.1804135     0.6614810
C           2.2663819    -0.4584347     1.4835871
C           5.7518395     0.7038148    -0.7590137
C           5.5001271    -0.6246387    -0.5671824
C           4.3674841    -1.0689825     0.1761707
C           3.5323066    -0.1321516     0.7230299
N           3.7881820     1.1946086     0.5133361
C           4.8652217     1.7262291    -0.2309894
O           4.9704360     2.9402671    -0.3778673
H          -0.5411890     2.4948158    -0.3763957
H          -2.0465777     0.7904087    -1.4115821
H          -1.5075217    -1.6424784    -1.0709858
H           0.5075611    -2.2443538     0.2840534
H           2.2218923     0.1435282     2.3993805
H           2.2965633    -1.5109629     1.7802084
H           6.6066908     1.0537463    -1.3267121
H           6.1740300    -1.3665929    -0.9897780
H           4.1775753    -2.1246875     0.3309953
H           3.0890165     1.8736265     0.8029357
24
009_C11H10N2O_5-6-10-9 (-90,) energy =    -609.9280756
N           0.6993005     1.1366810     0.4103710
C          -0.3674088     1.3750163    -0.3599970
C          -1.1680960     0.3684195    -0.9023224
C          -0.8351930    -0.9562582    -0.6260764
C           0.2779445    -1.2185405     0.1716535
C           1.0184982    -0.1420483     0.6687638
C           2.2578905    -0.3405132     1.5255800
C           5.7497413     0.6948167    -0.7769149
C           5.3497399    -0.6103564    -0.7242719
C           4.2161785    -1.0155159     0.0381800
C           3.5264081    -0.0684277     0.7475447
N           3.9287667     1.2356435     0.6724941
C           5.0255151     1.7342080    -0.0683373
O           5.2709196     2.9367769    -0.0641251
H          -0.5937763     2.4229309    -0.5488455
H          -2.0256956     0.6200940    -1.5185420
H          -1.4312692    -1.7732655    -1.0236342
H           0.5675328    -2.2386853     0.4067719
H           2.2007839     0.3287168     2.3915628
H           2.2900902    -1.3672884     1.9033266
H           6.6086684     1.0138762    -1.3564278
H           5.9053420    -1.3646666    -1.2769488
H           3.9110937    -2.0547131     0.0793778
H           3.3548408     1.9532352     1.1034780
24
009_C11H10N2O_5-6-10-9 (-75,) energy =    -609.9260617
N           0.6461184     1.1318264     0.2840533
C          -0.4291153     1.2803157    -0.4961492
C          -1.2121979     0.2156650    -0.9464625
C          -0.8523733    -1.0730991    -0.5581918
C           0.2686834    -1.2428664     0.2536289
C           0.9916669    -0.1128673     0.6492811
C           2.2356879    -0.2189311     1.5154904
C           5.7974083     0.6794785    -0.7478231
C           5.2169877    -0.5514501    -0.8736667
C           4.0500974    -0.9056582    -0.1385684
C           3.5064167     0.0107297     0.7227960
N           4.0919975     1.2402161     0.8272198
C           5.2429242     1.6874615     0.1349638
O           5.6616407     2.8261803     0.3214546
H          -0.6787150     2.3035761    -0.7717994
H          -2.0771055     0.3967350    -1.5771769
H          -1.4342033    -1.9330486    -0.8789554
H           0.5762888    -2.2328462     0.5783612
H           2.1677405     0.5139139     2.3268788
H           2.2793746    -1.2119879     1.9753727
H           6.6850287     0.9595613    -1.3035997
H           5.6517340    -1.2833835    -1.5507437
H           3.5980489    -1.8849645    -0.2447792
H           3.6620004     1.9506031     1.4096025
24
009_C11H10N2O_5-6-10-9 (-60,) energy =    -609.9259454
N           0.3537341     1.0696934    -0.1564433
C          -0.6892038     1.0106880     0.6800800
C          -1.1920685    -0.1786621     1.2077208
C          -0.5709490    -1.3727382     0.8447124
C           0.5178796    -1.3247554    -0.0232405
C           0.9500451    -0.0819705    -0.5012961
C           2.1454639     0.0363912    -1.4316516
C           5.9243141     0.5446139     0.5986091
C           4.9415534     1.4820207     0.7587831
C           3.6777108     1.3664442     0.1136934
C           3.4469284     0.2817528    -0.6900278
N           4.4394330    -0.6481309    -0.8411746
C           5.7219067    -0.6183116    -0.2411145
O           6.5160423    -1.5277750    -0.4664106
H          -1.1471283     1.9647683     0.9358979
H          -2.0451034    -0.1654322     1.8791206
H          -0.9277742    -2.3247645     1.2282610
H           1.0259631    -2.2356051    -0.3273528
H           2.2358678    -0.8710081    -2.0399297
H           1.9610421     0.8719641    -2.1145708
H           6.8886366     0.6273617     1.0869955
H           5.1244395     2.3443215     1.3959950
H           2.8973508     2.1047341     0.2507205
H           4.2929003    -1.4553434    -1.4373571
24
009_C11H10N2O_5-6-10-9 (-45,) energy =    -609.9259125
N           0.3381964     1.0638892    -0.2593103
C          -0.7340829     1.0796942     0.5422741
C          -1.2608945    -0.0578620     1.1531613
C          -0.6315584    -1.2798244     0.9185675
C           0.4874910    -1.3104118     0.0898030
C           0.9409740    -0.1147015    -0.4809058
C           2.1623606    -0.0874140    -1.3803040
C           5.9656641     0.5798987     0.5581092
C           4.8920054     1.3521943     0.9046731
C           3.6104523     1.1719282     0.3100965
C           3.4564097     0.1960568    -0.6378197
N           4.5402641    -0.5697128    -0.9734151
C           5.8476400    -0.4636378    -0.4401028
O           6.7282166    -1.2200191    -0.8411951
H          -1.1958481     2.0533740     0.6974413
H          -2.1375534     0.0148853     1.7894572
H          -1.0061222    -2.1939847     1.3710801
H           1.0032794    -2.2446226    -0.1139461
H           2.2530200    -1.0447947    -1.9074061
H           2.0083641     0.6886531    -2.1388610
H           6.9431748     0.7115486     1.0080277
H           5.0126401     2.1289842     1.6564423
H           2.7651277     1.7906596     0.5831324
H           4.4512426    -1.2931345    -1.6786711
24
009_C11H10N2O_5-6-10-9 (-30,) energy =    -609.9259154
N           0.2497771     1.0281382    -0.4442576
C          -0.8447009     1.1009982     0.3245896
C          -1.3231261     0.0387938     1.0905446
C          -0.6205487    -1.1658468     1.0572776
C           0.5207586    -1.2545184     0.2647709
C           0.9212697    -0.1332353    -0.4735789
C           2.1581273    -0.1730122    -1.3480443
C           5.9828121     0.5473479     0.5228689
C           4.8637020     1.1255173     1.0523606
C           3.5698887     0.9153116     0.4929022
C           3.4518990     0.1118258    -0.6088037
N           4.5834664    -0.4590085    -1.1281332
C           5.9047764    -0.3095040    -0.6438903
O           6.8287148    -0.8848118    -1.2121861
H          -1.3636968     2.0580734     0.3215235
H          -2.2198226     0.1542069     1.6916984
H          -0.9564810    -2.0215657     1.6366359
H           1.0949599    -2.1755532     0.2154997
H           2.2360736    -1.1568366    -1.8288801
H           2.0318171     0.5688292    -2.1460331
H           6.9692256     0.7001900     0.9457845
H           4.9546289     1.7655054     1.9271072
H           2.6922315     1.3898167     0.9121721
H           4.5191786    -1.0571604    -1.9448975
24
009_C11H10N2O_5-6-10-9 (-15,) energy =    -609.9258926
N           0.2518732     0.9910755    -0.5435871
C          -0.8570181     1.1318805     0.1937072
C          -1.3546904     0.1421568     1.0409964
C          -0.6561675    -1.0619138     1.1260055
C           0.4995264    -1.2211538     0.3652511
C           0.9198489    -0.1699208    -0.4597171
C           2.1693999    -0.2902479    -1.3061798
C           5.9983117     0.5857039     0.4864719
C           4.8606813     0.9675788     1.1384736
C           3.5628365     0.7012893     0.6106590
C           3.4604001     0.0457995    -0.5856212
N           4.6115255    -0.3318094    -1.2263442
C           5.9367883    -0.1102059    -0.7846123
O           6.8792554    -0.5015831    -1.4669817
H          -1.3727982     2.0858149     0.0968331
H          -2.2622789     0.3117641     1.6122793
H          -1.0060089    -1.8635413     1.7708076
H           1.0709132    -2.1442635     0.4066354
H           2.2488521    -1.3119523    -1.7028539
H           2.0592665     0.3819366    -2.1662706
H           6.9878378     0.7835176     0.8826549
H           4.9381127     1.4904256     2.0890827
H           2.6709980     1.0211391     1.1329989
H           4.5586514    -0.8151147    -2.1168045
24
009_C11H10N2O_5-6-10-9 (0,) energy =    -609.9258119
N           0.2644992     0.9366343    -0.6440293
C          -0.8548869     1.1455080     0.0590814
C          -1.3708749     0.2350047     0.9817352
C          -0.6826880    -0.9607855     1.1830367
C           0.4836806    -1.1905815     0.4564458
C           0.9242196    -0.2154912    -0.4475717
C           2.1848462    -0.4127075    -1.2614651
C           6.0066258     0.6003747     0.4724422
C           4.8766403     0.7881973     1.2153492
C           3.5801803     0.4754989     0.7089014
C           3.4713732    -0.0235311    -0.5599452
N           4.6156183    -0.2075929    -1.2918401
C           5.9380894     0.0736690    -0.8775559
O           6.8740669    -0.1376881    -1.6430331
H          -1.3643777     2.0891103    -0.1292266
H          -2.2862834     0.4581278     1.5212264
H          -1.0479963    -1.7019731     1.8887561
H           1.0479773    -2.1100689     0.5848194
H           2.2649424    -1.4640931    -1.5734917
H           2.0886154     0.1872261    -2.1746396
H           6.9950136     0.8356538     0.8505486
H           4.9584133     1.1876838     2.2236906
H           2.6942384     0.6367769     1.3085123
H           4.5570143    -0.5693954    -2.2379421
24
009_C11H10N2O_5-6-10-9 (15,) energy =    -609.9256544
N           0.3760022     0.9030919    -0.6482431
C          -0.7535689     1.1898780     0.0077025
C          -1.3607809     0.3260340     0.9208813
C          -0.7564669    -0.9064324     1.1610432
C           0.4207486    -1.2186708     0.4824519
C           0.9556235    -0.2847766    -0.4129783
C           2.2333378    -0.5650131    -1.1742782
C           6.0049620     0.7058890     0.4984989
C           4.8963055     0.7076269     1.2956603
C           3.6157217     0.3116268     0.8084560
C           3.4993527    -0.0751913    -0.4984533
N           4.6212251    -0.0711891    -1.2848979
C           5.9280022     0.3008792    -0.8921743
O           6.8443577     0.2576817    -1.7077545
H          -1.1966577     2.1599937    -0.2115566
H          -2.2803005     0.6130073     1.4218360
H          -1.1939048    -1.6143443     1.8598490
H           0.9193698    -2.1708382     0.6409129
H           2.3317422    -1.6445040    -1.3568395
H           2.1508884    -0.0793601    -2.1543799
H           6.9809246     1.0071685     0.8617570
H           4.9837793     1.0194031     2.3340249
H           2.7463927     0.3229887     1.4526434
H           4.5548347    -0.3435543    -2.2599486
24
009_C11H10N2O_5-6-10-9 (30,) energy =    -609.9253827
N           0.4801480     0.8495668    -0.6502401
C          -0.6490646     1.2214581    -0.0397361
C          -1.3437944     0.4161603     0.8655521
C          -0.8320108    -0.8487505     1.1451307
C           0.3450258    -1.2502716     0.5133247
C           0.9717328    -0.3693727    -0.3752070
C           2.2558569    -0.7419401    -1.0865078
C           5.9869905     0.7698714     0.4739850
C           4.9371249     0.5849743     1.3282042
C           3.6729047     0.1069707     0.8759555
C           3.5092822    -0.1666240    -0.4550385
N           4.5708323     0.0244900    -1.2976583
C           5.8599504     0.4876696    -0.9425501
O           6.7216881     0.6100810    -1.8082566
H          -1.0193549     2.2143840    -0.2898922
H          -2.2584514     0.7724910     1.3294812
H          -1.3393692    -1.5140550     1.8385367
H           0.7716529    -2.2313749     0.7025157
H           2.3553709    -1.8349082    -1.1364514
H           2.1841215    -0.3778777    -2.1183590
H           6.9506207     1.1351207     0.8104651
H           5.0616824     0.8072376     2.3856416
H           2.8487670    -0.0300773     1.5643861
H           4.4676066    -0.1616615    -2.2894823
24
009_C11H10N2O_5-6-10-9 (45,) energy =    -609.9250734
N           0.5716917     0.8078455    -0.6717419
C          -0.5621510     1.2528710    -0.1229566
C          -1.3368920     0.5081221     0.7697340
C          -0.9039802    -0.7727535     1.1028906
C           0.2780088    -1.2504625     0.5357811
C           0.9875454    -0.4262968    -0.3440540
C           2.2827890    -0.8799291    -0.9887671
C           5.9323707     0.9112342     0.4675705
C           4.9797935     0.5122884     1.3627418
C           3.7493569    -0.0683599     0.9421946
C           3.5174635    -0.2248185    -0.3984566
N           4.4814196     0.1772822    -1.2804908
C           5.7296182     0.7636823    -0.9599173
O           6.4990525     1.0839557    -1.8614152
H          -0.8692823     2.2561971    -0.4139231
H          -2.2511274     0.9228447     1.1831662
H          -1.4750382    -1.3926896     1.7887913
H           0.6433933    -2.2470144     0.7675513
H           2.3818032    -1.9699371    -0.9066146
H           2.2296557    -0.6416032    -2.0573069
H           6.8699359     1.3568817     0.7798919
H           5.1594743     0.6391922     2.4279739
H           2.9996652    -0.3740623     1.6617715
H           4.3212627     0.0880733    -2.2780404
24
009_C11H10N2O_5-6-10-9 (60,) energy =    -609.9250623
N           0.6498123     0.7411984    -0.7494607
C          -0.4748366     1.2687776    -0.2576914
C          -1.2999828     0.6178269     0.6624802
C          -0.9304751    -0.6556070     1.0883503
C           0.2416253    -1.2186367     0.5830230
C           1.0046052    -0.4841386    -0.3306905
C           2.2977671    -1.0296182    -0.9095760
C           5.8660089     0.9793835     0.4639907
C           5.0572246     0.3511003     1.3695075
C           3.8682217    -0.3233224     0.9725506
C           3.5301323    -0.3398518    -0.3551838
N           4.3476872     0.2940665    -1.2469049
C           5.5438651     0.9912331    -0.9489164
O           6.1796119     1.5202504    -1.8562339
H          -0.7315480     2.2627671    -0.6205028
H          -2.2037724     1.0969353     1.0262388
H          -1.5427646    -1.2045439     1.7987775
H           0.5580540    -2.2121978     0.8880509
H           2.3694300    -2.1054115    -0.7106814
H           2.2693983    -0.9039123    -1.9974887
H           6.7721857     1.4964269     0.7584389
H           5.3236830     0.3628573     2.4240040
H           3.2322092    -0.8129926     1.7005896
H           4.0975505     0.3197396    -2.2294007
24
009_C11H10N2O_5-6-10-9 (75,) energy =    -609.9260634
N           0.7058481     0.6382747    -0.8841030
C          -0.4018183     1.2469218    -0.4487565
C          -1.2365042     0.7219247     0.5397717
C          -0.8952003    -0.5065609     1.1013483
C           0.2590096    -1.1514953     0.6581000
C           1.0331706    -0.5420901    -0.3345315
C           2.3147746    -1.1732588    -0.8525413
C           5.7859771     1.0158884     0.4794405
C           5.1624240     0.1571016     1.3406201
C           4.0233997    -0.6024804     0.9496443
C           3.5511447    -0.4704417    -0.3298160
N           4.1777795     0.4000761    -1.1756709
C           5.3062426     1.2006169    -0.8763949
O           5.7671531     1.9479154    -1.7341953
H          -0.6351137     2.2015432    -0.9174138
H          -2.1258862     1.2603843     0.8523668
H          -1.5165950    -0.9582117     1.8699835
H           0.5533384    -2.1121678     1.0711710
H           2.3550076    -2.2273736    -0.5573019
H           2.3055718    -1.1412234    -1.9473271
H           6.6529496     1.5985369     0.7694958
H           5.5415074     0.0458095     2.3540082
H           3.5381614    -1.2816103     1.6411290
H           3.7988437     0.5560535    -2.1034587
24
009_C11H10N2O_5-6-10-9 (90,) energy =    -609.9280757
N           0.7663856     0.5610659    -0.9811412
C          -0.3295909     1.2319791    -0.6112554
C          -1.1848695     0.8109639     0.4084056
C          -0.8772887    -0.3723184     1.0771006
C           0.2656726    -1.0788505     0.7046798
C           1.0606367    -0.5757825    -0.3294096
C           2.3343957    -1.2708808    -0.7810438
C           5.7374188     1.0466021     0.4892139
C           5.3028916     0.0164685     1.2742316
C           4.1967901    -0.7979024     0.8950704
C           3.5704813    -0.5457043    -0.2966058
N           4.0061755     0.4982017    -1.0637886
C           5.0792557     1.3692151    -0.7636519
O           5.3594650     2.2829460    -1.5337093
H          -0.5344944     2.1491101    -1.1607187
H          -2.0640991     1.3940190     0.6644332
H          -1.5156584    -0.7412008     1.8753907
H           0.5367755    -2.0043130     1.2045472
H           2.3554966    -2.2963110    -0.3988840
H           2.3392631    -1.3258098    -1.8755820
H           6.5757993     1.6740895     0.7698641
H           5.8085606    -0.1923134     2.2143618
H           3.8640221    -1.6175849     1.5212397
H           3.4751024     0.7580381    -1.8887286
24
009_C11H10N2O_5-6-10-9 (105,) energy =    -609.9303043
N           0.8008845     0.5011029    -1.0209055
C          -0.2982373     1.2044101    -0.7282448
C          -1.1939546     0.8484639     0.2810081
C          -0.9235913    -0.2974738     1.0265310
C           0.2233869    -1.0351397     0.7356384
C           1.0587576    -0.6019466    -0.2977635
C           2.3357496    -1.3355000    -0.6709079
C           5.7386073     1.0396315     0.4696491
C           5.4586288    -0.0970539     1.1729347
C           4.3517857    -0.9302097     0.8358326
C           3.5718480    -0.5816060    -0.2339198
N           3.8558612     0.5655839    -0.9216575
C           4.9095379     1.4653617    -0.6445432
O           5.0421977     2.4841061    -1.3162624
H          -0.4704682     2.0925038    -1.3333503
H          -2.0747452     1.4534874     0.4722132
H          -1.5929578    -0.6130436     1.8222591
H           0.4677643    -1.9315389     1.2980942
H           2.3495188    -2.3284097    -0.2120059
H           2.3538747    -1.4721766    -1.7590557
H           6.5744020     1.6829067     0.7208417
H           6.0897418    -0.3788706     2.0128657
H           4.1398050    -1.8349485     1.3935903
H           3.1916023     0.8856419    -1.6216885
24
009_C11H10N2O_5-6-10-9 (120,) energy =    -609.9318560
N           0.8305883     0.4849598    -1.0137130
C          -0.2863092     1.1907089    -0.8054030
C          -1.2410336     0.8528870     0.1542016
C          -1.0113107    -0.2731261     0.9424248
C           0.1542359    -1.0112167     0.7400799
C           1.0500560    -0.6005879    -0.2513280
C           2.3408650    -1.3501247    -0.5335025
C           5.8006514     1.0359903     0.4040649
C           5.6341705    -0.1663938     1.0297279
C           4.5047125    -0.9957990     0.7652120
C           3.5812471    -0.5706361    -0.1516516
N           3.7577823     0.6354150    -0.7693103
C           4.8256283     1.5331661    -0.5516400
O           4.8571508     2.6082297    -1.1438509
H          -0.4222427     2.0646488    -1.4393302
H          -2.1341037     1.4576103     0.2767249
H          -1.7260097    -0.5726541     1.7041587
H           0.3675286    -1.8917718     1.3388960
H           2.3489961    -2.3037398     0.0014280
H           2.3774575    -1.5753111    -1.6077432
H           6.6526393     1.6769603     0.6012307
H           6.3755450    -0.5050497     1.7501325
H           4.3814183    -1.9512442     1.2615659
H           3.0055077     0.9814804    -1.3630251
24
009_C11H10N2O_5-6-10-9 (135,) energy =    -609.9320743
N           0.8608618     0.5074549    -0.9648038
C          -0.2802060     1.1969566    -0.8534143
C          -1.3057905     0.8466131     0.0243938
C          -1.1229011    -0.2716099     0.8356479
C           0.0673735    -0.9903647     0.7344427
C           1.0368736    -0.5722226    -0.1827356
C           2.3429099    -1.3271593    -0.3615897
C           5.8826993     1.0302048     0.3299444
C           5.7935974    -0.2191834     0.8748151
C           4.6350415    -1.0304324     0.6980007
C           3.5957081    -0.5342431    -0.0437809
N           3.7014228     0.7115112    -0.5911611
C           4.7966721     1.5917055    -0.4541289
O           4.7617867     2.7033549    -0.9751667
H          -0.3750830     2.0671000    -1.4997223
H          -2.2155953     1.4368870     0.0691603
H          -1.8924026    -0.5793921     1.5383978
H           0.2442011    -1.8639759     1.3548393
H           2.3404731    -2.2324669     0.2512697
H           2.3992511    -1.6501511    -1.4112650
H           6.7579945     1.6566327     0.4605495
H           6.6222689    -0.6105196     1.4609363
H           4.5714347    -2.0206451     1.1339297
H           2.8959360     1.0756163    -1.1010086
24
009_C11H10N2O_5-6-10-9 (150,) energy =    -609.9308397
N           0.8846869     0.5313426    -0.8923235
C          -0.2786665     1.1925399    -0.8822293
C          -1.3685474     0.8156635    -0.0988579
C          -1.2282843    -0.2977223     0.7276609
C          -0.0160486    -0.9853411     0.7325323
C           1.0208498    -0.5448038    -0.0980229
C           2.3392636    -1.2958084    -0.1677750
C           5.9495080     1.0281116     0.2432098
C           5.9186302    -0.2608328     0.6958909
C           4.7381624    -1.0530968     0.6120978
C           3.6109154    -0.4969458     0.0638323
N           3.6611947     0.7828553    -0.4019068
C           4.7788081     1.6451213    -0.3525462
O           4.6912643     2.7872818    -0.7965303
H          -0.3361390     2.0617782    -1.5339991
H          -2.2931943     1.3829747    -0.1347895
H          -2.0475736    -0.6247594     1.3620879
H           0.1271816    -1.8536081     1.3689009
H           2.3259981    -2.1337530     0.5345586
H           2.4076797    -1.7358405    -1.1745236
H           6.8426130     1.6401090     0.3016739
H           6.8131756    -0.6987002     1.1335556
H           4.7202704    -2.0724086     0.9804787
H           2.8183795     1.1637533    -0.8348889
24
009_C11H10N2O_5-6-10-9 (165,) energy =    -609.9285762
N           0.9231955     0.5762162    -0.7886661
C          -0.2541519     1.2051373    -0.8919036
C          -1.4078252     0.7867200    -0.2322670
C          -1.3205768    -0.3339194     0.5925928
C          -0.0959970    -0.9859897     0.7160572
C           1.0096497    -0.5074872     0.0006213
C           2.3318773    -1.2533712     0.0542282
C           6.0090676     1.0107068     0.1428895
C           6.0069300    -0.3089424     0.5000266
C           4.8101340    -1.0783066     0.5084169
C           3.6323805    -0.4682046     0.1549757
N           3.6523318     0.8403301    -0.2187851
C           4.7881835     1.6807286    -0.2606209
O           4.6698136     2.8484074    -0.6247908
H          -0.2670985     2.0831922    -1.5340917
H          -2.3398664     1.3287143    -0.3571102
H          -2.1904653    -0.6921210     1.1363430
H           0.0055194    -1.8577727     1.3557813
H           2.3052889    -1.9756964     0.8758538
H           2.3937876    -1.8540549    -0.8667248
H           6.9161305     1.6044950     0.1290616
H           6.9398567    -0.7895708     0.7867331
H           4.8170131    -2.1211683     0.8051628
H           2.7832388     1.2449477    -0.5707912
24
009_C11H10N2O_5-6-10-9 (180,) energy =    -609.9265451
N           0.9287809     0.7869552    -0.4772590
C          -0.2622897     1.3560748    -0.7126328
C          -1.4727238     0.7694842    -0.3597578
C          -1.4367351    -0.4700902     0.2822372
C          -0.2044835    -1.0611310     0.5360974
C           0.9697986    -0.4038766     0.1348190
C           2.3033964    -1.0969596     0.3808834
C           6.0533404     1.0019365    -0.0759295
C           6.0354055    -0.3128371     0.3003898
C           4.8165295    -1.0274780     0.4570281
C           3.6321550    -0.3700695     0.2266983
N           3.6650604     0.9348386    -0.1544880
C           4.8241451     1.7223094    -0.3407552
O           4.7135844     2.8931237    -0.6990216
H          -0.2328237     2.3250243    -1.2058562
H          -2.4113088     1.2697836    -0.5757788
H          -2.3556414    -0.9654582     0.5837121
H          -0.1434742    -2.0232906     1.0374214
H           2.2754784    -1.5213639     1.3926142
H           2.3388534    -1.9707344    -0.2859479