33
016_C12H19N2+_1-0-11-10 (-165,) energy =    -577.9777811
C           3.8815271     1.7927263    -0.4053999
C           2.9471673     2.7200408    -0.9335295
C           3.3617771     3.9187608    -1.7647645
C           1.5782997     2.4708020    -0.7969312
C           1.1158795     1.3306048    -0.1537097
C           2.0374844     0.4333942     0.3709859
C           3.4218573     0.6473613     0.2944089
C           4.2851761    -0.3642681     1.0320248
N           8.0044567     3.0816945    -0.2710462
C           7.6362855     1.7722790    -0.9515559
C           6.3527321     1.2285481    -0.3253082
N           5.2788565     2.1947226    -0.5186802
C           5.6053927     3.3846586     0.2807215
C           6.8490131     4.0710879    -0.2730360
H           4.3177345     3.7470245    -2.2688043
H           2.6095705     4.1176334    -2.5333913
H           3.4489131     4.8437097    -1.1769964
H           0.8729176     3.1774570    -1.2259412
H           0.0510021     1.1407675    -0.0612876
H           1.6819243    -0.4527437     0.8891231
H           4.9297068     0.1012588     1.7855911
H           3.6388731    -1.0621685     1.5693936
H           4.9171324    -0.9728918     0.3761706
H           8.2665772     2.8833440     0.7028489
H           8.8316944     3.4959536    -0.7148206
H           7.4939129     2.0013699    -2.0092588
H           8.4833470     1.0934587    -0.8240974
H           6.1189519     0.2986305    -0.8466513
H           6.5473452     0.9796428     0.7308562
H           4.7915902     4.1063397     0.2490172
H           5.7615888     3.1329188     1.3473934
H           7.1568210     4.9312374     0.3266384
H           6.7039889     4.3732269    -1.3120874
33
016_C12H19N2+_1-0-11-10 (-150,) energy =    -577.9836435
C           3.8462291     1.7998349    -0.3616677
C           2.9188730     2.6639960    -0.9914808
C           3.3575285     3.8641266    -1.8020596
C           1.5550650     2.3632255    -0.9215380
C           1.1029148     1.2359200    -0.2449211
C           2.0213351     0.4091573     0.3922436
C           3.3964359     0.6809886     0.3780021
C           4.2877283    -0.2215222     1.2109757
N           7.9549594     3.0660637    -0.3042982
C           7.5438019     1.8359419    -1.1020356
C           6.3028913     1.2238114    -0.4529102
N           5.2366616     2.2122666    -0.4407855
C           5.6001124     3.3264015     0.4332794
C           6.8134943     4.0586930    -0.1325831
H           4.2760275     3.6548295    -2.3598531
H           2.5805328     4.1448320    -2.5181607
H           3.5423016     4.7530026    -1.1818839
H           0.8460005     3.0171603    -1.4217530
H           0.0423784     1.0064901    -0.2067838
H           1.6693379    -0.4576398     0.9447911
H           4.9295387     0.3451378     1.8955347
H           3.6693357    -0.8752827     1.8310053
H           4.9314355    -0.8761744     0.6118865
H           8.2699123     2.7623186     0.6260494
H           8.7597817     3.5240048    -0.7461626
H           7.3357658     2.1797744    -2.1168507
H           8.3982513     1.1542207    -1.1026074
H           6.0046178     0.3644312    -1.0584724
H           6.5782495     0.8447500     0.5461047
H           4.7781726     4.0405020     0.4948558
H           5.8139859     2.9974042     1.4688732
H           7.1732298     4.8546175     0.5242676
H           6.6034268     4.4592130    -1.1261566
33
016_C12H19N2+_1-0-11-10 (-135,) energy =    -577.9867618
C           3.8972809     1.8400020    -0.3090421
C           2.9956055     2.6404020    -1.0452063
C           3.4676727     3.8080538    -1.8814015
C           1.6343729     2.3214827    -1.0144858
C           1.1697205     1.2365045    -0.2765770
C           2.0666017     0.4689530     0.4595204
C           3.4367246     0.7616741     0.4766875
C           4.3370693    -0.0753908     1.3623210
N           8.0191082     3.0162196    -0.3015823
C           7.5433168     1.8906542    -1.2110378
C           6.3216093     1.2332599    -0.5700810
N           5.2915142     2.2346235    -0.3637935
C           5.7108773     3.2633107     0.5767893
C           6.9168003     4.0166733     0.0193509
H           4.3377453     3.5408054    -2.4903444
H           2.6733915     4.1465340    -2.5519738
H           3.7533393     4.6742199    -1.2679568
H           0.9367352     2.9267145    -1.5867126
H           0.1111239     0.9947882    -0.2680028
H           1.7018039    -0.3642637     1.0540707
H           5.0264999     0.5377151     1.9541256
H           3.7348323    -0.6505936     2.0703800
H           4.9363702    -0.8000742     0.7968585
H           8.3574696     2.6050434     0.5781604
H           8.8214404     3.4975166    -0.7224944
H           7.2956931     2.3517245    -2.1689113
H           8.3814696     1.1992546    -1.3306663
H           5.9539831     0.4642087    -1.2546670
H           6.6441019     0.7207989     0.3544299
H           4.9024343     3.9835308     0.7206360
H           5.9602498     2.8581221     1.5772964
H           7.3318284     4.7383196     0.7274786
H           6.6714777     4.5126233    -0.9217167
33
016_C12H19N2+_1-0-11-10 (-120,) energy =    -577.9876883
C           3.8801446     1.8901548    -0.2552697
C           2.9997712     2.6088372    -1.0914716
C           3.4881167     3.7330315    -1.9761676
C           1.6450391     2.2612471    -1.0925820
C           1.1718689     1.2255114    -0.2905002
C           2.0513178     0.5285159     0.5325277
C           3.4147571     0.8473545     0.5718280
C           4.3220989     0.0563795     1.4904222
N           8.0070459     3.0295444    -0.2612687
C           7.4813926     2.0305194    -1.2838633
C           6.2741468     1.3108423    -0.6841313
N           5.2751337     2.2834213    -0.2863388
C           5.7421988     3.2008516     0.7366392
C           6.9343322     4.0008649     0.2133671
H           4.3175457     3.4151120    -2.6176615
H           2.6823261     4.0917060    -2.6221494
H           3.8417917     4.5939735    -1.3934901
H           0.9583230     2.8065902    -1.7339896
H           0.1177197     0.9648501    -0.3036620
H           1.6794848    -0.2728302     1.1654153
H           5.0549584     0.6858648     2.0063399
H           3.7345426    -0.4502586     2.2608554
H           4.8762000    -0.7234489     0.9515363
H           8.3646735     2.5102579     0.5512942
H           8.8047711     3.5457443    -0.6480667
H           7.2052790     2.6116568    -2.1656952
H           8.3040073     1.3514595    -1.5225524
H           5.8573468     0.6513701    -1.4500326
H           6.6239771     0.6649800     0.1440835
H           4.9457591     3.9067249     0.9857201
H           6.0321200     2.6983998     1.6808469
H           7.3889865     4.6348397     0.9788365
H           6.6597676     4.6001754    -0.6567921
33
016_C12H19N2+_1-0-11-10 (-105,) energy =    -577.9875053
C           3.7839891     1.8533235    -0.2536965
C           2.9247594     2.4975192    -1.1682565
C           3.4364823     3.5396618    -2.1366958
C           1.5696238     2.1504726    -1.1724583
C           1.0747581     1.1933421    -0.2903037
C           1.9333515     0.5706774     0.6109613
C           3.2972924     0.8871577     0.6511551
C           4.1721893     0.2003676     1.6790160
N           7.9325290     2.9235313    -0.2502049
C           7.3390145     2.1312229    -1.4077144
C           6.1336132     1.3445683    -0.8950735
N           5.1793122     2.2529446    -0.2847989
C           5.7203016     2.9503209     0.8676682
C           6.9050146     3.8137340     0.4367043
H           4.1713103     3.1245394    -2.8377467
H           2.6143905     3.9485002    -2.7302454
H           3.9217090     4.3755739    -1.6196108
H           0.8992542     2.6385202    -1.8744089
H           0.0206668     0.9324758    -0.3051130
H           1.5456489    -0.1755802     1.2991856
H           4.3935529     0.8563185     2.5311183
H           3.6642475    -0.6793793     2.0832590
H           5.1280431    -0.1421000     1.2694362
H           8.3104069     2.2629648     0.4415458
H           8.7260987     3.4858651    -0.5765230
H           7.0450539     2.8651815    -2.1604418
H           8.1314398     1.4877082    -1.7982772
H           5.6680369     0.8446100    -1.7484422
H           6.4918282     0.5496135    -0.2121809
H           4.9560672     3.6099675     1.2873030
H           6.0488052     2.2755534     1.6817038
H           7.4078371     4.2953342     1.2792529
H           6.6073571     4.5614063    -0.3008829
33
016_C12H19N2+_1-0-11-10 (-90,) energy =    -577.9875927
C           3.9449362     1.9263890    -0.2507708
C           3.1200314     2.4943964    -1.2449742
C           3.6650041     3.4618525    -2.2704595
C           1.7643606     2.1510966    -1.2655878
C           1.2343400     1.2718000    -0.3244512
C           2.0620400     0.7118554     0.6440676
C           3.4282323     1.0165459     0.6945164
C           4.2870896     0.3536352     1.7503959
N           8.0786958     3.0243335    -0.3390203
C           7.4250629     2.3510193    -1.5385557
C           6.2588340     1.4940188    -1.0476306
N           5.3429100     2.3018499    -0.2652661
C           5.9473260     2.8858786     0.9142115
C           7.0861432     3.8178741     0.5007875
H           4.3428431     2.9733678    -2.9837788
H           2.8523609     3.9019516    -2.8544995
H           4.2237724     4.2786445    -1.8002672
H           1.1192204     2.5861672    -2.0238428
H           0.1786688     1.0184148    -0.3499917
H           1.6511193     0.0139259     1.3686107
H           4.4858633     1.0167075     2.6025468
H           3.7826313    -0.5302103     2.1499640
H           5.2542127     0.0227001     1.3558286
H           8.5047038     2.3000199     0.2541438
H           8.8454369     3.6312461    -0.6491574
H           7.0796821     3.1567039    -2.1891702
H           8.1993604     1.7664317    -2.0418679
H           5.7404705     1.0961561    -1.9234509
H           6.6593533     0.6235225    -0.4902484
H           5.2023376     3.4779964     1.4522057
H           6.3460124     2.1399634     1.6284482
H           7.6369071     4.2190991     1.3555227
H           6.7298590     4.6319428    -0.1331735
33
016_C12H19N2+_1-0-11-10 (-75,) energy =    -577.9864047
C           3.9715890     1.9018340    -0.2196895
C           3.1964690     2.4233652    -1.2787412
C           3.7866115     3.3319901    -2.3326950
C           1.8334083     2.1118056    -1.3262193
C           1.2450032     1.3108139    -0.3514254
C           2.0240208     0.7921635     0.6786515
C           3.3967707     1.0567028     0.7538231
C           4.2105519     0.4034272     1.8501803
N           8.0636252     3.0947682    -0.3758614
C           7.3674637     2.5034454    -1.5947346
C           6.2754940     1.5455084    -1.1188042
N           5.3794467     2.2123517    -0.1985575
C           6.0221273     2.7364568     0.9841078
C           7.0914930     3.7580459     0.5913701
H           4.3781335     2.7845973    -3.0801863
H           2.9953282     3.8506661    -2.8803598
H           4.4409108     4.0903894    -1.8877705
H           1.2273600     2.5168194    -2.1320175
H           0.1837669     1.0856861    -0.3983195
H           1.5707072     0.1483301     1.4275495
H           4.4432772     1.0909958     2.6736358
H           3.6568599    -0.4326877     2.2852996
H           5.1595393     0.0041532     1.4741660
H           8.5579281     2.3413067     0.1203222
H           8.7815946     3.7654129    -0.6709243
H           6.9466324     3.3471035    -2.1447916
H           8.1346886     2.0077264    -2.1950132
H           5.7210697     1.1999163    -1.9934238
H           6.7539993     0.6495595    -0.6736899
H           5.2843000     3.2458742     1.6087318
H           6.4967533     1.9581696     1.6122680
H           7.6775432     4.1056225     1.4463487
H           6.6617154     4.6089935     0.0595783
33
016_C12H19N2+_1-0-11-10 (-60,) energy =    -577.9838517
C           3.9567286     1.8677422    -0.1924243
C           3.2233957     2.3733677    -1.2895515
C           3.8463902     3.2450867    -2.3568289
C           1.8490190     2.1150863    -1.3520839
C           1.2044851     1.3854254    -0.3582860
C           1.9401373     0.8830637     0.7108106
C           3.3214971     1.0869272     0.8005913
C           4.0884844     0.4237252     1.9239560
N           7.9771184     3.1878491    -0.4051880
C           7.2633893     2.6214165    -1.6251757
C           6.2678853     1.5582833    -1.1552510
N           5.3799818     2.0647433    -0.1352294
C           6.0367118     2.6077546     1.0291907
C           7.0087585     3.7263021     0.6394058
H           4.4057075     2.6750794    -3.1116039
H           3.0726700     3.7970575    -2.8968501
H           4.5313905     3.9825582    -1.9213004
H           1.2778847     2.5120584    -2.1869819
H           0.1358428     1.2036443    -0.4201810
H           1.4457238     0.2914756     1.4765716
H           4.3462884     1.1156928     2.7362796
H           3.4900712    -0.3745245     2.3705910
H           5.0216033    -0.0258564     1.5655148
H           8.5429558     2.4428987     0.0233250
H           8.6347514     3.9217428    -0.6899712
H           6.7643099     3.4643642    -2.1051853
H           8.0315254     2.2137410    -2.2875808
H           5.6948572     1.2143003    -2.0170496
H           6.8437220     0.6818447    -0.7951437
H           5.2949188     3.0357841     1.7063201
H           6.5956886     1.8436076     1.6023599
H           7.6095852     4.0753476     1.4836755
H           6.4922335     4.5683338     0.1744239
33
016_C12H19N2+_1-0-11-10 (-45,) energy =    -577.9803790
C           3.9982154     1.8110522    -0.1752092
C           3.2778426     2.3314027    -1.2758472
C           3.9045394     3.1637591    -2.3744297
C           1.8876029     2.1608072    -1.3061839
C           1.2100642     1.5048866    -0.2847255
C           1.9300261     0.9836725     0.7850142
C           3.3229210     1.0942769     0.8439567
C           4.0596729     0.3942382     1.9650766
N           7.9092228     3.2733746    -0.4782828
C           7.1906940     2.6806058    -1.6816731
C           6.3131840     1.5177864    -1.2020695
N           5.4350118     1.8578425    -0.1069652
C           6.1097047     2.4596874     1.0225647
C           6.9413070     3.6842949     0.6217450
H           4.5174801     2.5868104    -3.0786655
H           3.1249877     3.6456080    -2.9697609
H           4.5296327     3.9673131    -1.9635351
H           1.3305246     2.5719423    -2.1436043
H           0.1310088     1.3930813    -0.3273786
H           1.4130537     0.4429432     1.5731609
H           4.3202885     1.0647455     2.7950046
H           3.4367901    -0.3977753     2.3889639
H           4.9879822    -0.0655485     1.6090785
H           8.5609001     2.5730277    -0.0993661
H           8.4817945     4.0738002    -0.7673260
H           6.6084071     3.4927017    -2.1164660
H           7.9586417     2.3534091    -2.3877224
H           5.7370264     1.1396060    -2.0468484
H           6.9897803     0.6945693    -0.9014105
H           5.3779474     2.7888416     1.7613359
H           6.7758415     1.7372578     1.5287295
H           7.5406077     4.0735717     1.4494363
H           6.3207896     4.4805997     0.2051989
33
016_C12H19N2+_1-0-11-10 (-30,) energy =    -577.9758980
C           4.0445234     1.7836544    -0.1890176
C           3.3354024     2.2937946    -1.3044477
C           3.9523351     3.0668075    -2.4545143
C           1.9354674     2.2033682    -1.3032106
C           1.2328377     1.6320534    -0.2505737
C           1.9394638     1.1041540     0.8235616
C           3.3366405     1.1308875     0.8564499
C           4.0344281     0.3891570     1.9770152
N           7.8467055     3.3508147    -0.4843504
C           7.1537560     2.7458225    -1.6949558
C           6.3652775     1.5059711    -1.2460393
N           5.4858141     1.6955691    -0.1116956
C           6.1590805     2.3255277     1.0128573
C           6.8651169     3.6351674     0.6415740
H           4.6082142     2.4764666    -3.1044256
H           3.1622269     3.4603826    -3.0983895
H           4.5189161     3.9381195    -2.0992798
H           1.3910669     2.6112103    -2.1503297
H           0.1486098     1.5841597    -0.2759224
H           1.4065676     0.6157445     1.6348862
H           4.3123384     1.0348350     2.8212508
H           3.3730918    -0.3806305     2.3832733
H           4.9459247    -0.1037668     1.6234106
H           8.5609979     2.6947849    -0.1412144
H           8.3451292     4.2062034    -0.7525874
H           6.5178917     3.5312549    -2.1004573
H           7.9314553     2.4899141    -2.4195955
H           5.8077747     1.1142306    -2.0964875
H           7.1060668     0.7275439    -0.9879593
H           5.4414951     2.5562410     1.7990970
H           6.9038560     1.6379106     1.4493803
H           7.4378900     4.0529312     1.4740208
H           6.1652577     4.3829568     0.2616556
33
016_C12H19N2+_1-0-11-10 (-15,) energy =    -577.9705132
C           4.0704559     1.7742128    -0.2136356
C           3.3564488     2.2492778    -1.3456453
C           3.9474907     2.9170473    -2.5768625
C           1.9526272     2.2494505    -1.2968508
C           1.2431679     1.7868613    -0.1985491
C           1.9480483     1.2568633     0.8742573
C           3.3436818     1.1923371     0.8661626
C           4.0016992     0.4045763     1.9822680
N           7.7535170     3.4473686    -0.4561903
C           7.0871234     2.8480175    -1.6824741
C           6.4028562     1.5304033    -1.2841647
N           5.5082954     1.5745380    -0.1411464
C           6.1871622     2.1918586     0.9985853
C           6.7727142     3.5760259     0.6972927
H           4.6481167     2.3038956    -3.1509747
H           3.1422809     3.1765393    -3.2679474
H           4.4441807     3.8653983    -2.3296650
H           1.4103120     2.6395895    -2.1533502
H           0.1579402     1.8103299    -0.1935233
H           1.4115581     0.8283418     1.7165420
H           4.2728510     1.0167638     2.8536885
H           3.3086640    -0.3568903     2.3499291
H           4.9052546    -0.1067245     1.6366626
H           8.5312484     2.8419879    -0.1625122
H           8.1664884     4.3580425    -0.6850637
H           6.3885914     3.6011117    -2.0426881
H           7.8672717     2.6841377    -2.4308412
H           5.8912350     1.1199403    -2.1533778
H           7.2038105     0.8101402    -1.0453512
H           5.5002251     2.3134724     1.8327699
H           6.9973959     1.5306513     1.3462132
H           7.3207792     3.9917487     1.5470546
H           6.0027127     4.2810305     0.3746665
33
016_C12H19N2+_1-0-11-10 (0,) energy =    -577.9723547
C           4.0116782     1.8073912    -0.3926653
C           3.3234222     1.7634000    -1.6330418
C           3.9190604     1.9959533    -3.0158857
C           1.9799668     1.3551721    -1.6323753
C           1.2962080     1.0339085    -0.4690176
C           1.9533148     1.1639196     0.7469986
C           3.2812198     1.5938468     0.8116763
C           3.8282475     1.9077022     2.1913501
N           8.1887877     2.8621474     0.0708800
C           7.2704213     3.7453482    -0.7579974
C           6.1166956     2.9070783    -1.3067492
N           5.3559653     2.3488955    -0.1922180
C           6.2502176     1.3733582     0.4636035
C           7.4219437     2.0844500     1.1284862
H           4.8727761     1.4840796    -3.1695820
H           3.2340037     1.6010739    -3.7697494
H           4.0584555     3.0567300    -3.2583151
H           1.4673700     1.2833928    -2.5873348
H           0.2597757     0.7136504    -0.5091249
H           1.4186469     0.9802611     1.6750735
H           4.5328596     2.7452155     2.1637808
H           3.0062365     2.1916493     2.8540314
H           4.3269539     1.0556589     2.6746121
H           8.6560577     2.1940736    -0.5548979
H           8.9317253     3.4225536     0.5032874
H           6.9046465     4.5268989    -0.0894202
H           7.8770992     4.1854595    -1.5533755
H           5.4957399     3.5886707    -1.8869625
H           6.5176001     2.1466710    -1.9982107
H           5.7235635     0.8176799     1.2348739
H           6.6307172     0.6235147    -0.2558726
H           8.1245373     1.3901269     1.5957495
H           7.0778532     2.8164052     1.8618906
33
016_C12H19N2+_1-0-11-10 (15,) energy =    -577.9790724
C           3.9999125     1.8175083    -0.3704555
C           3.3491824     1.7005449    -1.6226883
C           4.0281037     1.7698613    -2.9824373
C           1.9873263     1.3631848    -1.6329367
C           1.2669634     1.1524136    -0.4648137
C           1.9087195     1.2991653     0.7590951
C           3.2555844     1.6650403     0.8297698
C           3.8398546     1.9473834     2.1975708
N           8.1584546     2.8955269     0.0395237
C           7.1890479     3.8452264    -0.6477716
C           6.0411812     3.0363281    -1.2504635
N           5.3567615     2.3159275    -0.1860647
C           6.2793771     1.3107118     0.3585684
C           7.4602168     1.9904017     1.0431780
H           4.9489879     1.1785609    -3.0209068
H           3.3603265     1.3529005    -3.7401445
H           4.2671765     2.7883256    -3.3098148
H           1.4929289     1.2489445    -2.5935565
H           0.2153781     0.8862552    -0.5086967
H           1.3513516     1.1704391     1.6829447
H           4.5353693     2.7928064     2.1669237
H           3.0418519     2.1945509     2.9027109
H           4.3736671     1.0877877     2.6271329
H           8.6069043     2.3095597    -0.6762067
H           8.9117612     3.4217962     0.4960553
H           6.8293530     4.5313219     0.1212364
H           7.7563244     4.3925421    -1.4048507
H           5.3591763     3.7517550    -1.7135320
H           6.4400394     2.3897885    -2.0501156
H           5.7750037     0.6958820     1.1029769
H           6.6501682     0.6199728    -0.4230272
H           8.2029650     1.2772631     1.4091376
H           7.1275503     2.6346068     1.8594320
33
016_C12H19N2+_1-0-11-10 (30,) energy =    -577.9839649
C           3.9848899     1.8223080    -0.3671683
C           3.3677661     1.6351184    -1.6243821
C           4.1049569     1.6313273    -2.9514142
C           1.9982959     1.3353447    -1.6514147
C           1.2514753     1.2125852    -0.4858586
C           1.8718218     1.3993787     0.7452992
C           3.2278467     1.7281734     0.8265075
C           3.8291778     2.0117870     2.1846713
N           8.1334624     2.8703343     0.0364382
C           7.1380760     3.8788138    -0.5207002
C           5.9912154     3.1183367    -1.1858477
N           5.3602461     2.2569230    -0.2006151
C           6.2920694     1.2209320     0.2399671
C           7.4778646     1.8550054     0.9619769
H           5.0388274     1.0601187    -2.9057679
H           3.4833010     1.1567811    -3.7148834
H           4.3431796     2.6353878    -3.3230001
H           1.5207832     1.1773546    -2.6145711
H           0.1935700     0.9736751    -0.5369391
H           1.2932331     1.3210705     1.6616348
H           4.4836444     2.8896675     2.1542400
H           3.0415229     2.2003569     2.9188428
H           4.4220429     1.1715584     2.5731101
H           8.5650294     2.3680786    -0.7501153
H           8.8960823     3.3542152     0.5232341
H           6.7870482     4.4687446     0.3279115
H           7.6840766     4.5149685    -1.2221008
H           5.2712318     3.8566340    -1.5470058
H           6.3866090     2.5839730    -2.0671592
H           5.7969177     0.5460390     0.9397993
H           6.6594911     0.5969277    -0.5980252
H           8.2445605     1.1269000     1.2382815
H           7.1526209     2.4093967     1.8443722
33
016_C12H19N2+_1-0-11-10 (45,) energy =    -577.9867309
C           3.9427210     1.8543029    -0.3755069
C           3.3642067     1.5622505    -1.6287753
C           4.1493333     1.5159371    -2.9240697
C           1.9987288     1.2498442    -1.6704831
C           1.2275316     1.2098934    -0.5136588
C           1.8162141     1.4866540     0.7172567
C           3.1701397     1.8236973     0.8073642
C           3.7657967     2.1591592     2.1554612
N           8.0841256     2.8909633     0.0096278
C           7.0640743     3.9423965    -0.4077968
C           5.9046675     3.2405085    -1.1141167
N           5.3288962     2.2513635    -0.2221087
C           6.2750558     1.1950239     0.1064017
C           7.4710774     1.7814745     0.8534872
H           5.1117616     1.0043736    -2.8095804
H           3.5854673     0.9678904    -3.6834848
H           4.3479499     2.5126414    -3.3380878
H           1.5439184     1.0190083    -2.6300142
H           0.1723415     0.9600226    -0.5707559
H           1.2166567     1.4603401     1.6229546
H           4.3527403     3.0831081     2.1164299
H           2.9781764     2.2875541     2.9026061
H           4.4299523     1.3671308     2.5289918
H           8.4902051     2.4741907    -0.8382640
H           8.8608131     3.3311446     0.5151506
H           6.7368516     4.4358891     0.5091595
H           7.5838014     4.6542588    -1.0543168
H           5.1527592     3.9950996    -1.3597449
H           6.2756755     2.8255093    -2.0688472
H           5.7970302     0.4622774     0.7604445
H           6.6330459     0.6428697    -0.7849435
H           8.2576431     1.0461934     1.0409183
H           7.1612283     2.2469769     1.7910723
33
016_C12H19N2+_1-0-11-10 (60,) energy =    -577.9876886
C           3.9574312     1.8483448    -0.3617307
C           3.4026393     1.4609671    -1.5987456
C           4.2119952     1.3788741    -2.8758501
C           2.0390028     1.1435931    -1.6430870
C           1.2491000     1.1971056    -0.4986110
C           1.8146315     1.5703869     0.7182571
C           3.1700617     1.9034609     0.8077735
C           3.7573913     2.3120937     2.1393346
N           8.1083769     2.8385135    -0.0169039
C           7.0728193     3.9295750    -0.2561498
C           5.8814645     3.3160994    -0.9906286
N           5.3559948     2.2041200    -0.2227175
C           6.3126655     1.1271513    -0.0447775
C           7.5331945     1.6365793     0.7206133
H           5.2015489     0.9354293    -2.7218012
H           3.6943455     0.7609571    -3.6145388
H           4.3587608     2.3649820    -3.3358203
H           1.5989897     0.8426820    -2.5900780
H           0.1945247     0.9438106    -0.5539031
H           1.1985238     1.6109069     1.6122091
H           4.2655400     3.2810538     2.0797215
H           2.9736325     2.3901061     2.8975263
H           4.4919593     1.5841341     2.5084033
H           8.4706025     2.5245924    -0.9268849
H           8.9104912     3.2181622     0.4978079
H           6.7881451     4.3030642     0.7292631
H           7.5641765     4.7189667    -0.8308025
H           5.1120660     4.0861799    -1.0917817
H           6.2014789     3.0411726    -2.0140415
H           5.8563787     0.3262923     0.5425996
H           6.6488354     0.6737757    -0.9984324
H           8.3296466     0.8917034     0.7940395
H           7.2584127     1.9926136     1.7153318
33
016_C12H19N2+_1-0-11-10 (75,) energy =    -577.9875083
C           3.8445426     1.7739825    -0.3716375
C           3.3147806     1.2991140    -1.5894760
C           4.1596316     1.0644206    -2.8243048
C           1.9473494     1.0005697    -1.6444416
C           1.1273835     1.1678778    -0.5322673
C           1.6652312     1.6407927     0.6619783
C           3.0253057     1.9522021     0.7626455
C           3.5831381     2.4697652     2.0690888
N           7.9940490     2.7976690    -0.0727042
C           6.9263502     3.8838426    -0.0560930
C           5.6980121     3.3747453    -0.8088833
N           5.2443452     2.1275145    -0.2207325
C           6.2336356     1.0685554    -0.3066134
C           7.4851970     1.4696456     0.4725569
H           4.7556785     0.1460093    -2.7430096
H           3.5217573     0.9486442    -3.7046642
H           4.8499998     1.8875462    -3.0353764
H           1.5256263     0.6338933    -2.5764088
H           0.0693056     0.9320144    -0.5972203
H           1.0252260     1.7726523     1.5299207
H           3.9790169     3.4885196     1.9726220
H           2.8044011     2.4940941     2.8360666
H           4.3996694     1.8414409     2.4432491
H           8.3060827     2.6574998    -1.0425714
H           8.8187313     3.1041125     0.4549670
H           6.7003875     4.0731306     0.9949983
H           7.3649265     4.7744051    -0.5134375
H           4.9109442     4.1282166    -0.7203493
H           5.9479735     3.2956639    -1.8849466
H           5.8325927     0.1567775     0.1440984
H           6.5253866     0.8158432    -1.3443969
H           8.2985447     0.7465665     0.3712959
H           7.2615620     1.6387229     1.5275953
33
016_C12H19N2+_1-0-11-10 (90,) energy =    -577.9875739
C           3.8682719     1.7845670    -0.4075389
C           3.3399512     1.2120595    -1.5827140
C           4.1786599     0.9453316    -2.8145867
C           1.9766477     0.8914987    -1.6098542
C           1.1556940     1.1432686    -0.5148646
C           1.6890394     1.7239890     0.6333456
C           3.0474792     2.0474538     0.7101486
C           3.6024893     2.6600477     1.9754754
N           8.0024068     2.8156825    -0.0228185
C           6.9173223     3.8742807     0.1242579
C           5.6965380     3.4449182    -0.6885236
N           5.2711421     2.1185955    -0.2843333
C           6.2786299     1.0987498    -0.4893257
C           7.5155331     1.4209829     0.3489890
H           4.7589705     0.0170163    -2.7310968
H           3.5378343     0.8380640    -3.6939276
H           4.8825018     1.7580906    -3.0249568