33
019_C12H19N2+_0-13-14-26 (-165,) energy =    -577.9794143
C           0.1985150    -0.0647866    -1.6229010
H           0.5624775     0.2944703    -2.5837593
C          -1.1425249    -0.4096373    -1.4965111
H          -1.8123316    -0.3107444    -2.3454296
C          -1.6086415    -0.8814848    -0.2706572
H          -2.6496907    -1.1645055    -0.1464175
C          -0.7301746    -0.9650691     0.8048249
H          -1.1038463    -1.3014507     1.7686720
C           0.6239075    -0.6018705     0.7045812
C           1.4428468    -0.6472885     1.9810246
H           0.7772959    -0.7572403     2.8420255
H           2.0361009     0.2587439     2.1255949
H           2.1355961    -1.4993354     2.0109600
C           1.1064199    -0.1863294    -0.5572982
C           2.4976066     0.3622468    -0.8700478
H           2.4427465     1.4585940    -0.8319560
H           2.7529092     0.1087722    -1.9143868
N           6.1841950    -0.9084625     0.8790139
H           6.6824415    -1.0624588    -0.0069908
H           6.8448255    -1.1435812     1.6281774
C           5.7845671     0.5564295     0.9695287
H           6.6945838     1.1508892     0.8601153
H           5.3641077     0.6973639     1.9672744
C           4.7540834     0.8601594    -0.1123434
H           5.2321195     0.7846036    -1.1115245
H           4.4439710     1.9022661     0.0128629
N           3.5985279    -0.0138388     0.0326555
C           3.9876096    -1.4084569    -0.1478787
H           4.4264481    -1.5967101    -1.1500012
H           3.1011695    -2.0439422    -0.0680996
C           4.9759876    -1.8328483     0.9299681
H           5.3398715    -2.8532607     0.7892996
H           4.5487448    -1.7229281     1.9285072
33
019_C12H19N2+_0-13-14-26 (-150,) energy =    -577.9834891
C           0.2708043    -0.1973782    -1.6542031
H           0.6523344     0.1165985    -2.6235779
C          -1.0377146    -0.6636885    -1.5597414
H          -1.6668100    -0.7025441    -2.4439092
C          -1.5236301    -1.0766810    -0.3211940
H          -2.5387313    -1.4500844    -0.2230425
C          -0.7039580    -0.9850363     0.8016086
H          -1.0985163    -1.2750715     1.7722299
C           0.6100448    -0.4983568     0.7313314
C           1.3763099    -0.3452774     2.0297786
H           0.6913474    -0.4302184     2.8784594
H           1.8805651     0.6232010     2.0998338
H           2.1469921    -1.1158123     2.1605456
C           1.1203629    -0.1404952    -0.5386349
C           2.4715532     0.5195973    -0.7739353
H           2.3860949     1.5921194    -0.5495447
H           2.7237216     0.4472704    -1.8463612
N           6.1547099    -1.0170002     0.7640905
H           6.6222377    -1.1197203    -0.1457924
H           6.8264466    -1.3321088     1.4728970
C           5.8121601     0.4496591     0.9766951
H           6.7406891     1.0183707     0.8876751
H           5.4217564     0.5282561     1.9933023
C           4.7669376     0.8695927    -0.0509184
H           5.2184178     0.8568751    -1.0652976
H           4.4952497     1.9086552     0.1611062
N           3.5864818     0.0261617     0.0562490
C           3.9155182    -1.3637139    -0.2366529
H           4.3197026    -1.4986456    -1.2618131
H           3.0061747    -1.9685031    -0.1727611
C           4.9143992    -1.8999286     0.7798849
H           5.2373752    -2.9191467     0.5555341
H           4.5171376    -1.8494808     1.7955489
33
019_C12H19N2+_0-13-14-26 (-135,) energy =    -577.9870051
C           0.4281715    -0.3443864    -1.6474616
H           0.8521464    -0.0948186    -2.6177549
C          -0.8420494    -0.9148908    -1.5843945
H          -1.4012362    -1.1022002    -2.4961491
C          -1.3821915    -1.2349851    -0.3411007
H          -2.3695157    -1.6819105    -0.2696739
C          -0.6583898    -0.9573770     0.8185684
H          -1.0993103    -1.1783053     1.7874594
C           0.6133504    -0.3713423     0.7762087
C           1.2962511    -0.0207250     2.0805832
H           0.5830703    -0.0746829     2.9081487
H           1.7105406     0.9940552     2.0640353
H           2.1280832    -0.6953651     2.3142809
C           1.1797187    -0.0955408    -0.4905720
C           2.5016237     0.6295772    -0.6580707
H           2.4034146     1.6622518    -0.2960289
H           2.7505247     0.6941365    -1.7311952
N           6.1794696    -1.0855928     0.7116833
H           6.6526884    -1.0934133    -0.2009871
H           6.8446574    -1.4786104     1.3869225
C           5.8439173     0.3523478     1.0773420
H           6.7763798     0.9212123     1.0549953
H           5.4471865     0.3246456     2.0941463
C           4.8068871     0.8853555     0.0946847
H           5.2640010     0.9791328    -0.9128004
H           4.5382365     1.8970354     0.4154528
N           3.6230280     0.0407459     0.1055640
C           3.9450735    -1.3106606    -0.3346448
H           4.3547411    -1.3383007    -1.3662401
H           3.0318448    -1.9128856    -0.3388957
C           4.9345885    -1.9585220     0.6240992
H           5.2550006    -2.9490767     0.2929469
H           4.5303660    -2.0164000     1.6366678
33
019_C12H19N2+_0-13-14-26 (-120,) energy =    -577.9893381
C           0.5871126    -0.5015692    -1.5796863
H           1.0671914    -0.3203420    -2.5391513
C          -0.6408478    -1.1624029    -1.5409095
H          -1.1110229    -1.4936477    -2.4619565
C          -1.2556246    -1.3832532    -0.3107899
H          -2.2123358    -1.8949774    -0.2595325
C          -0.6472388    -0.9290217     0.8607118
H          -1.1445665    -1.0838992     1.8148804
C           0.5802206    -0.2568300     0.8405984
C           1.1615813     0.2719656     2.1323350
H           0.4828567     0.0838323     2.9686975
H           1.3272497     1.3565624     2.0835014
H           2.1292422    -0.1842050     2.3661581
C           1.2163719    -0.0627298    -0.4075793
C           2.5201570     0.6975658    -0.5269346
H           2.4237119     1.6889207    -0.0664944
H           2.7568069     0.8616962    -1.5921295
N           6.2083468    -1.1422991     0.6601894
H           6.6821275    -1.0688524    -0.2492249
H           6.8722672    -1.5962822     1.2973421
C           5.8768638     0.2578828     1.1540287
H           6.8107541     0.8242970     1.1798917
H           5.4829964     0.1400543     2.1654867
C           4.8376508     0.8788553     0.2265046
H           5.2923396     1.0638380    -0.7693039
H           4.5701705     1.8569459     0.6390112
N           3.6539095     0.0363596     0.1630664
C           3.9744301    -1.2667591    -0.4031355
H           4.3871590    -1.1966246    -1.4316675
H           3.0615306    -1.8656519    -0.4662272
C           4.9619274    -2.0017749     0.4925230
H           5.2818131    -2.9581068     0.0721732
H           4.5557441    -2.1510854     1.4948744
33
019_C12H19N2+_0-13-14-26 (-105,) energy =    -577.9899776
C           0.6705925    -0.6010404    -1.5221708
H           1.2087130    -0.4806124    -2.4605861
C          -0.5222621    -1.3247190    -1.5021728
H          -0.9042044    -1.7728887    -2.4145722
C          -1.2182654    -1.4558707    -0.3024133
H          -2.1504500    -2.0123129    -0.2674978
C          -0.7205078    -0.8620762     0.8590725
H          -1.2743648    -0.9608903     1.7892222
C           0.4731248    -0.1317431     0.8565327
C           0.9624934     0.5193576     2.1302861
H           0.3327246     0.2395020     2.9792021
H           0.9393317     1.6151062     2.0569107
H           1.9942715     0.2323508     2.3613219
C           1.1788911    -0.0048462    -0.3608848
C           2.4804076     0.7627253    -0.4337574
H           2.4048604     1.7033096     0.1225235
H           2.6973127     1.0260371    -1.4835461
N           6.1687078    -1.2259556     0.5132784
H           6.6280188    -1.0911213    -0.3964925
H           6.8354138    -1.7377018     1.1018771
C           5.8700860     0.1374983     1.1179852
H           6.8134609     0.6865161     1.1665476
H           5.4945929    -0.0507434     2.1257570
C           4.8223511     0.8420814     0.2623646
H           5.2597226     1.0963989    -0.7258028
H           4.5789303     1.7893367     0.7540043
N           3.6242665     0.0235098     0.1595227
C           3.9138081    -1.2337792    -0.5142605
H           4.3107272    -1.0884745    -1.5412796
H           2.9925621    -1.8149454    -0.6078660
C           4.9047160    -2.0499212     0.3039115
H           5.2008822    -2.9763788    -0.1936681
H           4.5124819    -2.2678470     1.2992166
33
019_C12H19N2+_0-13-14-26 (-90,) energy =    -577.9884739
C           0.7942680    -0.7201313    -1.4134636
H           1.4025425    -0.6689371    -2.3150555
C          -0.3768549    -1.4780457    -1.4196287
H          -0.6643502    -2.0310426    -2.3089195
C          -1.1757200    -1.5052439    -0.2780349
H          -2.0945103    -2.0844141    -0.2660739
C          -0.7959321    -0.7814900     0.8531549
H          -1.4245129    -0.8075004     1.7395829
C           0.3788767    -0.0206750     0.8777430
C           0.7585547     0.7371697     2.1303938
H           0.0686950     0.5093701     2.9474376
H           0.7290966     1.8237818     1.9753331
H           1.7707186     0.4823535     2.4662800
C           1.1780973     0.0187533    -0.2857460
C           2.4833596     0.7839442    -0.3058959
H           2.4248683     1.6663580     0.3367325
H           2.6805207     1.1456454    -1.3310250
N           6.2029126    -1.2657654     0.3823478
H           6.6406655    -1.0575702    -0.5242027
H           6.8849011    -1.8178496     0.9142348
C           5.9108893     0.0438704     1.0977352
H           6.8519136     0.5945965     1.1683781
H           5.5585964    -0.2247125     2.0956272
C           4.8406107     0.8048247     0.3222565
H           5.2549152     1.1379469    -0.6525120
H           4.6053733     1.7099122     0.8911038
N           3.6431213    -0.0092518     0.1816477
C           3.9229583    -1.2080646    -0.5921391
H           4.2933793    -0.9839760    -1.6151461
H           3.0057223    -1.7913183    -0.7050952
C           4.9374390    -2.0772429     0.1385097
H           5.2251489    -2.9612859    -0.4353444
H           4.5686713    -2.3726272     1.1227661
33
019_C12H19N2+_0-13-14-26 (-75,) energy =    -577.9856325
C           1.0129828     1.1045953     0.3114707
H           1.6175402     1.8883552     0.7626886
C           0.0014782     1.4618775    -0.5779721
H          -0.1555123     2.5054215    -0.8348460
C          -0.8175969     0.4686658    -1.1126899
H          -1.6166535     0.7266702    -1.8015928
C          -0.6233778    -0.8600478    -0.7392645
H          -1.2814323    -1.6275697    -1.1384554
C           0.3913679    -1.2373560     0.1519816
C           0.5085020    -2.6970274     0.5435554
H          -0.2931069    -3.2808498     0.0832991
H           0.4305414    -2.8408427     1.6277939
H           1.4550398    -3.1510902     0.2240889
C           1.2353757    -0.2326957     0.6774445
C           2.3900218    -0.5559405     1.6174122
H           2.2763058    -1.5519318     2.0519980
H           2.3987834     0.1512382     2.4549662
N           6.0490046    -0.2376535    -0.6415470
H           5.6395017     0.0950686    -1.5241907
H           7.0609150    -0.3044927    -0.7970727
C           5.7454686     0.7770787     0.4497894
H           6.1457922     1.7390171     0.1207480
H           6.2737534     0.4351227     1.3420075
C           4.2370186     0.8148386     0.6753658
H           3.7432789     1.2357350    -0.2219619
H           4.0460106     1.5092834     1.4995574
N           3.7573032    -0.5099669     1.0349418
C           3.9775926    -1.4613242    -0.0438746
H           3.4495480    -1.1926734    -0.9797385
H           3.6077174    -2.4452546     0.2580706
C           5.4707932    -1.6070540    -0.3198889
H           5.6792407    -2.2571982    -1.1729683
H           6.0053926    -1.9638104     0.5627910
33
019_C12H19N2+_0-13-14-26 (-60,) energy =    -577.9840293
C           1.1394810     0.9871614     0.0350445
H           1.8385964     1.7660178     0.3279124
C           0.1052971     1.3134381    -0.8402454
H           0.0315573     2.3183033    -1.2459211
C          -0.8391713     0.3437981    -1.1733891
H          -1.6551363     0.5800959    -1.8501182
C          -0.7407591    -0.9311050    -0.6198345
H          -1.4866278    -1.6804948    -0.8717693
C           0.2953274    -1.2780130     0.2590298
C           0.3262218    -2.6813471     0.8315862
H          -0.5121107    -3.2686824     0.4477228
H           0.2487406    -2.6834044     1.9254462
H           1.2437605    -3.2254824     0.5720222
C           1.2553814    -0.2960492     0.5928384
C           2.4320964    -0.6241861     1.5049822
H           2.3541045    -1.6492736     1.8733760
H           2.4198403     0.0208697     2.3923725
N           6.1739767    -0.0874315    -0.5692143
H           5.8404876     0.4313634    -1.3920773
H           7.1867434    -0.2002249    -0.6879591
C           5.8760253     0.7335579     0.6770215
H           6.3547872     1.7071190     0.5461064
H           6.3300386     0.1990288     1.5136410
C           4.3611237     0.8373616     0.8374949
H           3.9570580     1.4426199     0.0026368
H           4.1604788     1.3883315     1.7614995
N           3.7916672    -0.4944980     0.9264524
C           3.9984859    -1.2476376    -0.3000469
H           3.5355650    -0.7734196    -1.1865998
H           3.5462960    -2.2392739    -0.2019417
C           5.4919309    -1.4480048    -0.5404606
H           5.7051044    -1.9371450    -1.4941197
H           5.9551843    -2.0032071     0.2775982
33
019_C12H19N2+_0-13-14-26 (-45,) energy =    -577.9826571
C           1.2214100     0.7988080    -0.2602326
H           2.0329328     1.5138617    -0.1582899
C           0.1472030     1.1254082    -1.0862019
H           0.1430002     2.0669877    -1.6277458
C          -0.9221084     0.2388532    -1.1992382
H          -1.7694473     0.4765178    -1.8356554
C          -0.9034336    -0.9549853    -0.4808795
H          -1.7429524    -1.6402667    -0.5640927
C           0.1703311    -1.3012630     0.3510970
C           0.1142053    -2.6100573     1.1125696
H          -0.8199950    -3.1363040     0.8994210
H           0.1623284    -2.4609774     2.1979321
H           0.9342849    -3.2883347     0.8425021
C           1.2568829    -0.4043119     0.4599578
C           2.4483958    -0.7403907     1.3509164
H           2.4112887    -1.7967014     1.6306417
H           2.3966293    -0.1794959     2.2930740
N           6.2727879     0.0513435    -0.4670126
H           6.0014681     0.7136661    -1.2054702
H           7.2869684    -0.0777128    -0.5522069
C           5.9310389     0.6627515     0.8846469
H           6.4464151     1.6246046     0.9444310
H           6.3209534    -0.0227331     1.6395166
C           4.4123922     0.7966764     0.9844211
H           4.0805789     1.5610909     0.2537406
H           4.1750307     1.1834048     1.9799043
N           3.8015921    -0.5046222     0.8031929
C           4.0535142    -1.0566002    -0.5152828
H           3.6555774    -0.4307110    -1.3364723
H           3.5663334    -2.0323671    -0.6045292
C           5.5528788    -1.2691574    -0.7074113
H           5.8084426    -1.5961079    -1.7184253
H           5.9530350    -1.9713936     0.0265871
33
019_C12H19N2+_0-13-14-26 (-30,) energy =    -577.9823225
C           1.2845481     0.6406067    -0.4597845
H           2.1758265     1.2590733    -0.5065161
C           0.1722119     1.0203367    -1.2111477
H           0.2128146     1.9107066    -1.8320327
C          -0.9886421     0.2533919    -1.1504717
H          -1.8649949     0.5344406    -1.7270193
C          -1.0222764    -0.8782460    -0.3367294
H          -1.9316886    -1.4713210    -0.2851415
C           0.0864597    -1.2757758     0.4208354
C          -0.0180652    -2.5052998     1.2978292
H          -1.0199000    -2.9382561     1.2350933
H           0.1739567    -2.2787164     2.3539101
H           0.6919805    -3.2893652     1.0025183
C           1.2666285    -0.5010049     0.3515662
C           2.4769529    -0.9054807     1.1873558
H           2.4744122    -1.9926153     1.3211113
H           2.4019389    -0.4866184     2.1999911
N           6.3322506     0.1650064    -0.3887622
H           6.0746394     0.8724018    -1.0894636
H           7.3534495     0.0759777    -0.4299729
C           5.9024277     0.6612204     0.9851643
H           6.3812562     1.6308682     1.1430366
H           6.2781851    -0.0676373     1.7058203
C           4.3765943     0.7412026     1.0158169
H           4.0546045     1.5585749     0.3405574
H           4.0768254     1.0315836     2.0270513
N           3.8195959    -0.5559408     0.6927115
C           4.1595975    -1.0041861    -0.6436855
H           3.7892050    -0.3355912    -1.4434789
H           3.7106502    -1.9850351    -0.8272413
C           5.6743046    -1.1564464    -0.7646979
H           5.9963553    -1.3991793    -1.7804492
H           6.0581932    -1.8980718    -0.0614185
33
019_C12H19N2+_0-13-14-26 (-15,) energy =    -577.9823657
C           1.3206948     0.4979339    -0.6161225
H           2.2584854     1.0181589    -0.7830484
C           0.1831616     0.9444435    -1.2911619
H           0.2511906     1.7915315    -1.9676965
C          -1.0331984     0.2995764    -1.0861379
H          -1.9278226     0.6347358    -1.6025008
C          -1.0982765    -0.7814450    -0.2067081
H          -2.0491400    -1.2819898    -0.0427134
C           0.0327396    -1.2430071     0.4755068
C          -0.0910664    -2.4136478     1.4253549
H          -1.1285950    -2.7516586     1.4903672
H           0.2344230    -2.1582448     2.4419718
H           0.5116051    -3.2736621     1.1032942
C           1.2683569    -0.5903724     0.2613603
C           2.4937398    -1.0865396     1.0221668
H           2.5161846    -2.1830732     0.9925353
H           2.4039313    -0.8312542     2.0870712
N           6.3611438     0.2488559    -0.2845025
H           6.1092369     0.9690920    -0.9741545
H           7.3862807     0.2150517    -0.2638160
C           5.8217877     0.6672682     1.0769087
H           6.2373068     1.6532035     1.2998523
H           6.1927716    -0.0691851     1.7923391
C           4.2947101     0.6670949     1.0160739
H           3.9655658     1.4978687     0.3621674
H           3.9200220     0.8912926     2.0191886
N           3.8282708    -0.6399306     0.6016126
C           4.2753228    -1.0181052    -0.7241080
H           3.9277300    -0.3392089    -1.5254339
H           3.8909888    -2.0123213    -0.9711700
C           5.8011988    -1.0893596    -0.7493283
H           6.2006415    -1.2761355    -1.7493088
H           6.1776168    -1.8367722    -0.0481689
33
019_C12H19N2+_0-13-14-26 (0,) energy =    -577.9823713
C           1.3372596     0.3743874    -0.7529323
H           2.2973614     0.7932803    -1.0361078
C           0.1849891     0.8932707    -1.3471605
H           0.2643117     1.6971602    -2.0733574
C          -1.0589114     0.3735009    -1.0018092
H          -1.9646594     0.7657345    -1.4546490
C          -1.1365012    -0.6587881    -0.0662524
H          -2.1078758    -1.0649325     0.2041020
C           0.0079236    -1.1894397     0.5380401
C          -0.1244036    -2.3095233     1.5450953
H          -1.1745050    -2.5704243     1.7002911
H           0.2932895    -2.0382785     2.5236765
H           0.3941978    -3.2210796     1.2190875
C           1.2707433    -0.6600501     0.1857507
C           2.5093040    -1.2501162     0.8520540
H           2.5482283    -2.3310206     0.6610698
H           2.4175435    -1.1587021     1.9427714
N           6.3600472     0.3310170    -0.1988761
H           6.1076716     1.0544252    -0.8850318
H           7.3823859     0.3553041    -0.1168683
C           5.7180456     0.6802292     1.1374924
H           6.0605961     1.6821514     1.4081148
H           6.0912634    -0.0523810     1.8557346
C           4.1998507     0.5927691     0.9878258
H           3.8533569     1.4219717     0.3421542
H           3.7569563     0.7600300     1.9741963
N           3.8357641    -0.7251109     0.5081651
C           4.3816744    -1.0371552    -0.7971869
H           4.0511007    -0.3533998    -1.6020131
H           4.0696635    -2.0426387    -1.0950419
C           5.9081681    -1.0236370    -0.7287453
H           6.3777697    -1.1609290    -1.7060023
H           6.2827754    -1.7674794    -0.0228643
33
019_C12H19N2+_0-13-14-26 (15,) energy =    -577.9823658
C           1.3261764     0.2445760    -0.8925844
H           2.2858297     0.5568829    -1.2919322
C           0.1690710     0.8371082    -1.4015740
H           0.2436117     1.5947737    -2.1763374
C          -1.0739942     0.4461840    -0.9122609
H          -1.9840514     0.8961710    -1.2977882
C          -1.1453316    -0.5343985     0.0774604
H          -2.1162574    -0.8433745     0.4561653
C           0.0046078    -1.1361878     0.6000882
C          -0.1259855    -2.2011880     1.6662157
H          -1.1777781    -2.4050647     1.8832703
H           0.3489538    -1.9022320     2.6104650
H           0.3355569    -3.1496468     1.3627397
C           1.2664215    -0.7334568     0.1059021
C           2.5150185    -1.4067729     0.6664700
H           2.5719980    -2.4460242     0.3143415
H           2.4254592    -1.4797364     1.7575236
N           6.3224372     0.4160084    -0.1267276
H           6.0664657     1.1412498    -0.8095991
H           7.3349381     0.4987641     0.0163458
C           5.5840775     0.6904787     1.1770831
H           5.8471582     1.7042337     1.4893164
H           5.9620052    -0.0356758     1.8994488
C           4.0854146     0.5135647     0.9389476
H           3.7177938     1.3354080     0.2961095
H           3.5794606     0.6233591     1.9028875
N           3.8310365    -0.8093992     0.4045553
C           4.4680717    -1.0464751    -0.8744104
H           4.1505314    -0.3540181    -1.6780023
H           4.2334169    -2.0570924    -1.2215182
C           5.9847083    -0.9479765    -0.7140103
H           6.5180773    -1.0315872    -1.6642489
H           6.3598262    -1.6878713    -0.0043089
33
019_C12H19N2+_0-13-14-26 (30,) energy =    -577.9823224
C           1.3167084     0.0932274    -1.0432477
H           2.2537276     0.2875520    -1.5563843
C           0.1712240     0.7614517    -1.4760577
H           0.2304069     1.4644327    -2.3020265
C          -1.0453706     0.5122054    -0.8457754
H          -1.9477427     1.0218430    -1.1703824
C          -1.1003371    -0.4038432     0.2039171
H          -2.0519455    -0.6027379     0.6900587
C           0.0406102    -1.0802348     0.6532138
C          -0.0871803    -2.0750371     1.7871252
H          -1.1272650    -2.1534725     2.1144361
H           0.5068655    -1.7856254     2.6643110
H           0.2396666    -3.0807074     1.4949868
C           1.2761968    -0.8199153     0.0180855
C           2.5256211    -1.5642533     0.4784275
H           2.6030299    -2.5348722    -0.0298060
H           2.4322213    -1.8000416     1.5440227
N           6.2707600     0.4853821    -0.0372117
H           6.0083015     1.2199892    -0.7074583
H           7.2675884     0.6206196     0.1640659
C           5.4491861     0.6673173     1.2325899
H           5.6325104     1.6829617     1.5921135
H           5.8333417    -0.0603981     1.9501052
C           3.9791589     0.4095397     0.9088711
H           3.5907152     1.2275386     0.2733316
H           3.4187538     0.4539308     1.8476444
N           3.8333415    -0.9059552     0.3169269
C           4.5470544    -1.0482380    -0.9350467
H           4.2347280    -0.3349538    -1.7233985
H           4.3899091    -2.0526907    -1.3389564
C           6.0450548    -0.8720384    -0.6892131
H           6.6312024    -0.8891630    -1.6114647
H           6.4241850    -1.6165747     0.0134300
33
019_C12H19N2+_0-13-14-26 (45,) energy =    -577.9826570
C           1.2980766    -0.0905144    -1.2315397
H           2.1825852    -0.0398100    -1.8602992
C           0.1747878     0.6467483    -1.6023140
H           0.2023045     1.2717773    -2.4902570
C          -0.9825805     0.5636312    -0.8304212
H          -1.8687271     1.1284608    -1.1046425
C          -1.0007620    -0.2588552     0.2942550
H          -1.9074834    -0.3288939     0.8894792
C           0.1208173    -1.0039552     0.6839738
C           0.0224533    -1.8878269     1.9107674
H          -0.9770297    -1.8233792     2.3489214
H           0.7361130    -1.5999075     2.6939156
H           0.2071019    -2.9433194     1.6775381
C           1.2957281    -0.9139685    -0.0960654
C           2.5413728    -1.7041616     0.2917535
H           2.6522743    -2.5892233    -0.3480334
H           2.4319896    -2.0850307     1.3107667
N           6.1949590     0.5677455     0.0755299
H           5.9085582     1.3343309    -0.5473091
H           7.1753551     0.7446670     0.3204740
C           5.3259679     0.6044489     1.3258474
H           5.4322686     1.6004117     1.7630191
H           5.7353309    -0.1481815     2.0025915
C           3.8861692     0.2793700     0.9365891
H           3.4615981     1.1111748     0.3430423
H           3.2982939     0.2235914     1.8578461
N           3.8404637    -0.9989893     0.2508611
C           4.5928608    -0.9900749    -0.9872991
H           4.2575437    -0.2274951    -1.7182894
H           4.5085887    -1.9629284    -1.4805968
C           6.0699382    -0.7470017    -0.6817242
H           6.6809053    -0.6603444    -1.5837003
H           6.4732650    -1.5198191    -0.0245897
33
019_C12H19N2+_0-13-14-26 (60,) energy =    -577.9840293
C           1.2614787    -0.3788595    -1.4436285
H           2.0614568    -0.5249362    -2.1646179
C           0.1741659     0.4144241    -1.8049623
H           0.1549287     0.9033709    -2.7746662
C          -0.8915857     0.5577532    -0.9179213
H          -1.7500074     1.1679086    -1.1832865
C          -0.8580498    -0.1005033     0.3096942
H          -1.6967511     0.0032235     0.9932154
C           0.2295575    -0.8990438     0.6913569
C           0.1858097    -1.5948815     2.0374617
H          -0.7420145    -1.3525486     2.5623747
H           1.0128957    -1.2982037     2.6956468
H           0.2269063    -2.6864005     1.9401461
C           1.3119558    -1.0404355    -0.2063006
C           2.5438889    -1.8564537     0.1689622
H           2.6921577    -2.6758259    -0.5454425
H           2.4068293    -2.3257837     1.1454467
N           6.0705867     0.6239949     0.2111624
H           5.7013142     1.4544822    -0.2698756
H           7.0483628     0.8325780     0.4413057
C           5.2660878     0.3988221     1.4836635
H           5.3247562     1.3186623     2.0707029
H           5.7596033    -0.4173433     2.0150694
C           3.8347128     0.0297968     1.1050675
H           3.3261036     0.9062265     0.6596934
H           3.3012227    -0.2062722     2.0308652
N           3.8380123    -1.1347080     0.2343310
C           4.5217590    -0.8638945    -1.0167353
H           4.0898975    -0.0204032    -1.5899810
H           4.4782744    -1.7472514    -1.6612500
C           5.9925526    -0.5628367    -0.7381754
H           6.5469863    -0.2933260    -1.6404738
H           6.4809625    -1.3963726    -0.2297934
33
019_C12H19N2+_0-13-14-26 (75,) energy =    -577.9856326
C           1.1784262    -0.6545193    -1.5965582
H           1.9025161    -0.9668301    -2.3459038
C           0.1153032     0.1583966    -1.9849112
H           0.0338800     0.4952854    -3.0142283
C          -0.8506483     0.5121684    -1.0441410
H          -1.6913242     1.1384729    -1.3281279
C          -0.7475512     0.0367604     0.2620089
H          -1.5172827     0.2937206     0.9851730
C           0.3170300    -0.7795084     0.6703710
C           0.3330754    -1.2929935     2.0964754
H          -0.5673033    -0.9724695     2.6273649
H           1.1900132    -0.9243705     2.6743476
H           0.3605763    -2.3882851     2.1402888
C           1.3077697    -1.1205373    -0.2782842
C           2.5213414    -1.9659479     0.0874454
H           2.6909998    -2.7280733    -0.6820075
H           2.3591028    -2.5015776     1.0258337
N           5.9240391     0.6691626     0.3524396
H           5.4546986     1.5335785     0.0525033
H           6.9013837     0.9186113     0.5400340
C           5.2535387     0.1634519     1.6204050
H           5.3026329     0.9681000     2.3579779
H           5.8442729    -0.6906922     1.9575510
C           3.8210483    -0.2462730     1.2930449
H           3.2223529     0.6529097     1.0483384
H           3.3921412    -0.6752158     2.2030690
N           3.8144266    -1.2473141     0.2369517
C           4.3789951    -0.7181501    -0.9942171
H           3.8333472     0.1606514    -1.3893200
H           4.3483191    -1.4882638    -1.7714014
C           5.8426534    -0.3466828    -0.7763919
H           6.2965697     0.1100737    -1.6591076
H           6.4296287    -1.2095169    -0.4553779
33
019_C12H19N2+_0-13-14-26 (90,) energy =    -577.9884741
C           0.7295257     0.3832669    -1.2433838
H           1.3189631     0.6431382    -2.1211884
C          -0.4269839     1.1086848    -0.9564261
H          -0.7209111     1.9402634    -1.5899749
C          -1.2029764     0.7450705     0.1424574
H          -2.1102823     1.2936758     0.3782258
C          -0.8151915    -0.3319643     0.9408265
H          -1.4257772    -0.6099484     1.7960679
C           0.3452188    -1.0664388     0.6697358
C           0.7348139    -2.2171552     1.5706364
H           0.0599149    -2.2860951     2.4280307
H           1.7547365    -2.1013111     1.9562707
H           0.6909154    -3.1804946     1.0457133
C           1.1212766    -0.7068881    -0.4539934
C           2.4124538    -1.4297211    -0.7698394
H           2.5848245    -1.4125772    -1.8609619
H           2.3508279    -2.4804532    -0.4744027