33
019_C12H19N2+_13-14-26-27 (-165,) energy =    -577.9879455
C           0.6914673     0.1579619    -1.5059009
H           1.2504199     0.2362313    -2.4361515
C          -0.4788540     0.8991524    -1.3439211
H          -0.8257327     1.5522770    -2.1390720
C          -1.1986352     0.7855804    -0.1558323
H          -2.1127977     1.3546918    -0.0136738
C          -0.7490535    -0.0700183     0.8512706
H          -1.3224183    -0.1628079     1.7701829
C           0.4193701    -0.8264890     0.7023556
C           0.8471934    -1.7801999     1.7958564
H           0.2628125    -1.6197561     2.7061330
H           1.9081713    -1.6724438     2.0452854
H           0.6938366    -2.8249185     1.4928919
C           1.1541122    -0.6981075    -0.4981125
C           2.4258013    -1.4842346    -0.7243954
H           2.6552040    -1.4672616    -1.8031931
H           2.3006576    -2.5346449    -0.4387806
N           6.1308213     0.2354349     0.6375929
H           6.4161136     0.6589980    -0.2544726
H           6.8738808     0.4500698     1.3118316
C           4.8156746     0.8658003     1.0774959
H           4.9730752     1.9462121     1.1177771
H           4.6113159     0.4798182     2.0782015
C           3.7191803     0.4700010     0.0979077
H           3.9220624     0.9310043    -0.8910331
H           2.7802859     0.8962817     0.4577589
N           3.6075223    -0.9835457     0.0406442
C           4.8383298    -1.5522852    -0.4894700
H           5.0756431    -1.1820178    -1.5084002
H           4.7364309    -2.6401064    -0.5653832
C           6.0064564    -1.2679859     0.4479187
H           6.9603823    -1.6279933     0.0552308
H           5.8279234    -1.6888502     1.4393859
33
019_C12H19N2+_13-14-26-27 (-150,) energy =    -577.9851324
C           0.7461335     0.0583545    -1.5190227
H           1.3230177     0.0641378    -2.4415575
C          -0.3898292     0.8603445    -1.4140024
H          -0.6911431     1.4906032    -2.2453869
C          -1.1360906     0.8362853    -0.2367731
H          -2.0247236     1.4532716    -0.1397900
C          -0.7463888     0.0091044     0.8178336
H          -1.3393978    -0.0134507     1.7286158
C           0.3877274    -0.8068537     0.7264921
C           0.7568879    -1.7219162     1.8739090
H           0.1835325    -1.4749017     2.7717321
H           1.8222657    -1.6657872     2.1247843
H           0.5417140    -2.7710628     1.6307571
C           1.1484940    -0.7705098    -0.4636598
C           2.3863145    -1.6234560    -0.6231043
H           2.5884641    -1.7222845    -1.7004501
H           2.2279437    -2.6341925    -0.2326658
N           6.1148105     0.2263474     0.5374962
H           6.2736860     0.7758677    -0.3165454
H           6.9127578     0.4121908     1.1551492
C           4.8192750     0.6980109     1.1849122
H           4.9144424     1.7737444     1.3509625
H           4.7474420     0.1752933     2.1408032
C           3.6502974     0.3468421     0.2740567
H           3.7236089     0.9358324    -0.6629099
H           2.7327044     0.6660064     0.7720761
N           3.6205477    -1.0954022     0.0519538
C           4.8166525    -1.5042071    -0.6706919
H           4.9152160    -0.9997515    -1.6540441
H           4.7757825    -2.5802278    -0.8699739
C           6.0633688    -1.2476974     0.1687864
H           6.9874288    -1.4835378    -0.3645480
H           6.0241478    -1.7985286     1.1105648
33
019_C12H19N2+_13-14-26-27 (-135,) energy =    -577.9824579
C           0.8489972    -0.0350923    -1.5232278
H           1.4681229    -0.0896410    -2.4165654
C          -0.2612872     0.8079125    -1.5077987
H          -0.4999914     1.4118866    -2.3781550
C          -1.0659388     0.8564276    -0.3699665
H          -1.9372213     1.5043875    -0.3427322
C          -0.7569709     0.0617533     0.7344270
H          -1.3950943     0.0969188     1.6137327
C           0.3531420    -0.7924972     0.7344178
C           0.6316537    -1.6648413     1.9402546
H           0.0220161    -1.3561654     2.7939692
H           1.6829036    -1.6320220     2.2505446
H           0.3938733    -2.7170539     1.7359590
C           1.1713602    -0.8322066    -0.4164596
C           2.3888591    -1.7281417    -0.4798152
H           2.5623041    -1.9836649    -1.5329913
H           2.2125306    -2.6688433     0.0503946
N           6.1024417     0.2896166     0.4853079
H           6.1365729     0.9429462    -0.3076711
H           6.9465742     0.4635963     1.0419197
C           4.8536198     0.5864965     1.3049132
H           4.8990508     1.6400846     1.5911497
H           4.9118698    -0.0475680     2.1918453
C           3.6230158     0.2587876     0.4683517
H           3.5647527     0.9607894    -0.3878078
H           2.7423638     0.4510150     1.0841512
N           3.6632472    -1.1425842     0.0713939
C           4.8019701    -1.3849386    -0.7998538
H           4.7782172    -0.7715822    -1.7247386
H           4.8107976    -2.4333233    -1.1143010
C           6.1072843    -1.1327705    -0.0519008
H           6.9873481    -1.2371693    -0.6911945
H           6.1951798    -1.7880271     0.8169058
33
019_C12H19N2+_13-14-26-27 (-120,) energy =    -577.9816133
C           0.9819990    -0.1039208    -1.4802054
H           1.6603182    -0.2041660    -2.3258460
C          -0.0950602     0.7754429    -1.5684095
H          -0.2491744     1.3634963    -2.4683738
C          -0.9798151     0.8779462    -0.4949097
H          -1.8289581     1.5530621    -0.5482139
C          -0.7799037     0.1014629     0.6458650
H          -1.4800320     0.1777899     1.4737890
C           0.2993666    -0.7869807     0.7515509
C           0.4491404    -1.6276978     2.0030670
H          -0.2740921    -1.3201523     2.7631550
H           1.4479792    -1.5510374     2.4506787
H           0.2734388    -2.6916568     1.7999137
C           1.1974802    -0.8830329    -0.3337498
C           2.3970971    -1.8088208    -0.2923617
H           2.5274224    -2.2624609    -1.2804178
H           2.2242360    -2.6294214     0.4095802
N           6.1095743     0.3217629     0.3888429
H           6.0208719     1.0541772    -0.3274195
H           7.0064208     0.4832659     0.8601318
C           4.9580966     0.4658952     1.3750537
H           4.9987548     1.4837877     1.7707122
H           5.1460344    -0.2561755     2.1720916
C           3.6502673     0.1683492     0.6497916
H           3.4572026     0.9629054    -0.0982353
H           2.8418079     0.2335422     1.3811549
N           3.7028300    -1.1656281     0.0768274
C           4.7416702    -1.2691209    -0.9307577
H           4.6072107    -0.5630160    -1.7776144
H           4.7512161    -2.2773248    -1.3548514
C           6.1108347    -1.0354087    -0.2978625
H           6.9207819    -1.0282883    -1.0314919
H           6.3151808    -1.7722736     0.4813429
33
019_C12H19N2+_13-14-26-27 (-105,) energy =    -577.9827319
C           1.0715542    -0.1820335    -1.4633214
H           1.7900868    -0.3292915    -2.2680690
C           0.0209711     0.7145460    -1.6444704
H          -0.0708286     1.2706006    -2.5728987
C          -0.9196764     0.8742743    -0.6268127
H          -1.7501066     1.5631364    -0.7514288
C          -0.8001055     0.1353292     0.5488975
H          -1.5441868     0.2549811     1.3321427
C           0.2528344    -0.7693295     0.7488793
C           0.3043511    -1.5651937     2.0376875
H          -0.4920356    -1.2478861     2.7161950
H           1.2537441    -1.4486617     2.5758590
H           0.1696588    -2.6392378     1.8597260
C           1.2086015    -0.9221915    -0.2788298
C           2.3946802    -1.8604382    -0.1375885
H           2.5055844    -2.4632260    -1.0443709
H           2.2274269    -2.5625265     0.6837854
N           6.0863804     0.3462757     0.3037504
H           5.8829595     1.1439435    -0.3126126
H           7.0284477     0.5017894     0.6789973
C           5.0639923     0.3294624     1.4318510
H           5.1193303     1.2996935     1.9317660
H           5.3760575    -0.4635754     2.1143128
C           3.6856847     0.0489807     0.8416127
H           3.3621606     0.9135417     0.2297847
H           2.9787698    -0.0227297     1.6722155
N           3.7118117    -1.2000752     0.1037728
C           4.6258835    -1.1543102    -1.0202787
H           4.3786825    -0.3684359    -1.7651422
H           4.6127527    -2.1109911    -1.5501311
C           6.0516294    -0.9308004    -0.5223168
H           6.7704832    -0.8112569    -1.3366801
H           6.3680334    -1.7350969     0.1447592
33
019_C12H19N2+_13-14-26-27 (-90,) energy =    -577.9843614
C           1.0544283    -0.3061691    -1.4920439
H           1.7616933    -0.5309592    -2.2881646
C           0.0244419     0.5994600    -1.7375008
H          -0.0553775     1.0885648    -2.7039692
C          -0.9117761     0.8527624    -0.7355843
H          -1.7265748     1.5498822    -0.9082359
C          -0.8114494     0.1906183     0.4868371
H          -1.5569362     0.3769016     1.2555859
C           0.2195820    -0.7224377     0.7515715
C           0.2353844    -1.4408155     2.0863654
H          -0.5946134    -1.1022788     2.7122214
H           1.1571271    -1.2709687     2.6575211
H           0.1298341    -2.5260640     1.9678243
C           1.1781729    -0.9630287    -0.2575179
C           2.3493828    -1.9103799    -0.0465619
H           2.4536735    -2.5876546    -0.9003416
H           2.1771080    -2.5403653     0.8302593
N           5.9997814     0.3706973     0.2725776
H           5.6946834     1.2259832    -0.2100204
H           6.9729849     0.5282735     0.5563867
C           5.1200152     0.1606925     1.4965606
H           5.1948233     1.0635574     2.1075994
H           5.5422815    -0.6915455     2.0327503
C           3.6933343    -0.1209522     1.0359755
H           3.2604376     0.7918997     0.5833448
H           3.0992452    -0.3395982     1.9275873
N           3.6781643    -1.2668770     0.1440025
C           4.4507037    -1.0272318    -1.0611887
H           4.0877050    -0.1669786    -1.6602972
H           4.4079312    -1.9082187    -1.7084417
C           5.9155859    -0.7955752    -0.7006028
H           6.5283685    -0.5399830    -1.5685024
H           6.3381681    -1.6583488    -0.1819034
33
019_C12H19N2+_13-14-26-27 (-75,) energy =    -577.9855490
C           1.0076961    -0.4752949    -1.5655402
H           1.6850593    -0.8050512    -2.3507142
C           0.0002737     0.4344121    -1.8806967
H          -0.0872689     0.8252966    -2.8902410
C          -0.9047642     0.8160645    -0.8915782
H          -1.7022111     1.5178308    -1.1179449
C          -0.8004039     0.2705459     0.3870065
H          -1.5275282     0.5486987     1.1455627
C           0.2078958    -0.6447023     0.7218829
C           0.2161919    -1.2382324     2.1167872
H          -0.6539054    -0.8938015     2.6820558
H           1.1029220    -0.9577596     2.6992095
H           0.1759933    -2.3337430     2.0982515
C           1.1433196    -1.0082172    -0.2735367
C           2.2933757    -1.9675617     0.0007806
H           2.3993313    -2.6777781    -0.8263901
H           2.1004119    -2.5605931     0.8987576
N           5.8978908     0.3735582     0.3497943
H           5.5108048     1.2736986     0.0377040
H           6.8881772     0.5398000     0.5602432
C           5.1578157    -0.0692122     1.6024731
H           5.2587089     0.7308339     2.3398318
H           5.6659380    -0.9693058     1.9544008
C           3.7031127    -0.3556398     1.2440225
H           3.1876337     0.5903426     0.9881150
H           3.2204708    -0.7458421     2.1442944
N           3.6347832    -1.3527657     0.1878689
C           4.2739741    -0.8843422    -1.0311619
H           3.8155329     0.0348198    -1.4466248
H           4.1976303    -1.6558240    -1.8037192
C           5.7578797    -0.6355235    -0.7792124
H           6.2686015    -0.2213179    -1.6518704
H           6.2632566    -1.5432714    -0.4435340
33
019_C12H19N2+_13-14-26-27 (-60,) energy =    -577.9856971
C           0.9935275    -0.6675839    -1.6707453
H           1.6303533    -1.0968675    -2.4418360
C          -0.0115939     0.2230296    -2.0422936
H          -0.1389846     0.4989822    -3.0849517
C          -0.8629182     0.7337247    -1.0638907
H          -1.6590284     1.4219074    -1.3327349
C          -0.7087460     0.3323161     0.2620024
H          -1.3976417     0.7071072     1.0147014
C           0.2990375    -0.5606683     0.6538171
C           0.3598106    -0.9898584     2.1063840
H          -0.5348050    -0.6558022     2.6387666
H           1.2202096    -0.5674127     2.6405346
H           0.4107643    -2.0793207     2.2157536
C           1.1828455    -1.0535399    -0.3341637
C           2.3259932    -2.0077241    -0.0135224
H           2.4325650    -2.7338889    -0.8273335
H           2.1249084    -2.5828419     0.8940956
N           5.8837736     0.3889792     0.4352754
H           5.4399927     1.3105651     0.3304657
H           6.8843645     0.5623726     0.5815067
C           5.2847937    -0.3089490     1.6459105
H           5.4308004     0.3475375     2.5070485
H           5.8528529    -1.2320723     1.7778339
C           3.8126126    -0.5991380     1.3722966
H           3.2488497     0.3537456     1.3292108
H           3.4296823    -1.1593865     2.2299155
N           3.6753482    -1.4053390     0.1679572
C           4.1737221    -0.6884755    -0.9973157
H           3.6348178     0.2574117    -1.1962298
H           4.0532424    -1.3133110    -1.8878784
C           5.6646043    -0.4075501    -0.8414867
H           6.0683467     0.1830066    -1.6673649
H           6.2352610    -1.3313819    -0.7271237
33
019_C12H19N2+_13-14-26-27 (-45,) energy =    -577.9842258
C           0.8541420    -0.8569410    -1.7948017
H           1.4602595    -1.3707852    -2.5387964
C          -0.1580160     0.0007693    -2.2209992
H          -0.3216911     0.1677489    -3.2815352
C          -0.9687452     0.6200056    -1.2714979
H          -1.7696607     1.2847932    -1.5817678
C          -0.7680954     0.3583382     0.0832510
H          -1.4263016     0.8165650     0.8170301
C           0.2478005    -0.4985951     0.5288316
C           0.3604362    -0.7796370     2.0136224
H          -0.5026943    -0.3703183     2.5454220
H           1.2530441    -0.3315820     2.4675850
H           0.3907134    -1.8544427     2.2289857
C           1.0909407    -1.1014337    -0.4334167
C           2.2314012    -2.0381254    -0.0594095
H           2.3317646    -2.7933769    -0.8475508
H           2.0240661    -2.5806568     0.8663453
N           5.8474739     0.2695333     0.4732580
H           5.4220914     1.1974071     0.5965410
H           6.8623503     0.4033955     0.5421539
C           5.3560920    -0.6441533     1.5851205
H           5.6040179    -0.1642859     2.5350063
H           5.9090553    -1.5797645     1.4808265
C           3.8565447    -0.8656074     1.4101913
H           3.3263451     0.0911970     1.5883770
H           3.5358851    -1.5609641     2.1911787
N           3.5905947    -1.4420750     0.0999660
C           3.9703184    -0.5067944    -0.9495959
H           3.4278827     0.4557454    -0.8966178
H           3.7438507    -0.9385148    -1.9287082
C           5.4747350    -0.2590447    -0.9037919
H           5.8013555     0.4836282    -1.6357392
H           6.0342408    -1.1872002    -1.0362233
33
019_C12H19N2+_13-14-26-27 (-30,) energy =    -577.9825308
C           0.7957508    -1.0897324    -1.8341963
H           1.3723118    -1.7028235    -2.5246434
C          -0.2453726    -0.3042735    -2.3251406
H          -0.4676677    -0.2945947    -3.3880213
C          -1.0067208     0.4492793    -1.4335137
H          -1.8296981     1.0602336    -1.7928558
C          -0.7239010     0.3980747    -0.0690169
H          -1.3386434     0.9671258     0.6239230
C           0.3234430    -0.3816622     0.4403596
C           0.5550214    -0.4004089     1.9361657
H          -0.3304944    -0.0393736     2.4666035
H           1.3881028     0.2493763     2.2370142
H           0.7719883    -1.4056992     2.3148896
C           1.1061846    -1.1318645    -0.4661881
C           2.2639120    -2.0170206    -0.0329537
H           2.3986367    -2.7924118    -0.7956255
H           2.0414958    -2.5377119     0.9025730
N           5.9072834     0.2280419     0.6274382
H           5.5199525     1.0955311     1.0204993
H           6.9253673     0.3513690     0.5988067
C           5.5412600    -0.9294740     1.5448250
H           5.9148766    -0.6841333     2.5420736
H           6.0596181    -1.8068987     1.1532267
C           4.0268463    -1.1199382     1.5095378
H           3.5451595    -0.2398634     1.9813106
H           3.7922210    -1.9856727     2.1355290
N           3.5970906    -1.3637676     0.1448395
C           3.8564588    -0.2099931    -0.6995020
H           3.3417195     0.7084769    -0.3560542
H           3.4988870    -0.4004064    -1.7147692
C           5.3585116     0.0424364    -0.7809204
H           5.6059105     0.9452216    -1.3448676
H           5.8832739    -0.8179311    -1.2009664
33
019_C12H19N2+_13-14-26-27 (-15,) energy =    -577.9818596
C           0.7389614    -1.2522746    -1.8620690
H           1.2985028    -1.9350238    -2.4984047
C          -0.3017468    -0.5013422    -2.4082551
H          -0.5443376    -0.5915366    -3.4628627
C          -1.0323700     0.3510301    -1.5829623
H          -1.8516375     0.9381561    -1.9875968
C          -0.7194363     0.4382824    -0.2257817
H          -1.3055012     1.0914717     0.4157816
C           0.3243266    -0.3059245     0.3374324
C           0.6042152    -0.1848090     1.8191688
H          -0.1646300     0.4167350     2.3115338
H           1.5689418     0.2993415     2.0237378
H           0.6218824    -1.1620738     2.3173937
C           1.0704063    -1.1629781    -0.5026897
C           2.2139078    -2.0139544     0.0145369
H           2.3639554    -2.8514607    -0.6763632
H           1.9534447    -2.4499328     0.9845591
N           5.9000643     0.1634096     0.6863773
H           5.5627201     0.9372685     1.2734506
H           6.9096416     0.3049666     0.5715370
C           5.6305734    -1.1494689     1.4069056
H           6.1127839    -1.0873094     2.3857176
H           6.0990058    -1.9305376     0.8049216
C           4.1206211    -1.3559997     1.5021579
H           3.6963783    -0.5997721     2.1947250
H           3.9570144    -2.3352106     1.9613829
N           3.5339662    -1.3253284     0.1778871
C           3.7115306    -0.0370879    -0.4637432
H           3.2594924     0.8040807     0.0999343
H           3.2368516    -0.0385430    -1.4476997
C           5.1986918     0.2360601    -0.6642750
H           5.3944070     1.2298618    -1.0747585
H           5.6630690    -0.5282921    -1.2904151
33
019_C12H19N2+_13-14-26-27 (0,) energy =    -577.9819755
C           0.7984496    -1.3264556    -1.8366151
H           1.3878025    -2.0358624    -2.4139483
C          -0.2173673    -0.6038091    -2.4623935
H          -0.4140730    -0.7435890    -3.5211479
C          -0.9825913     0.2861557    -1.7108816
H          -1.7821288     0.8528250    -2.1791907
C          -0.7289593     0.4406615    -0.3471672
H          -1.3400719     1.1255054     0.2351897
C           0.2878583    -0.2752190     0.2960706
C           0.5002862    -0.0959262     1.7834945
H          -0.1874675     0.6520844     2.1869967
H           1.5188525     0.2338251     2.0273843
H           0.3262147    -1.0289940     2.3347879
C           1.0673214    -1.1708630    -0.4697397
C           2.1866525    -1.9814001     0.1464453
H           2.3244270    -2.9028059    -0.4307066
H           1.9048693    -2.2817256     1.1626077
N           5.9361768     0.1290066     0.6532953
H           5.6624351     0.8301069     1.3539632
H           6.9303755     0.2881957     0.4565119
C           5.7319398    -1.2580349     1.2436853
H           6.3076723    -1.3043482     2.1714877
H           6.1366816    -1.9628604     0.5147679
C           4.2382273    -1.4869013     1.4612941
H           3.8833468    -0.8294150     2.2829065
H           4.1174002    -2.5183145     1.8060457
N           3.5170212    -1.2946459     0.2208373
C           3.6424291     0.0573194    -0.2854219
H           3.2658452     0.8330002     0.4133022
H           3.0701817     0.1660809    -1.2090501
C           5.1046905     0.3495537    -0.6044386
H           5.2694627     1.3824390    -0.9212837
H           5.4950160    -0.3419652    -1.3536763
33
019_C12H19N2+_13-14-26-27 (15,) energy =    -577.9830829
C           0.8706992    -1.3525213    -1.7661324
H           1.5087135    -2.0661090    -2.2834348
C          -0.1203964    -0.6738451    -2.4737548
H          -0.2521423    -0.8523296    -3.5367910
C          -0.9472251     0.2223039    -1.7975356
H          -1.7299788     0.7548541    -2.3298953
C          -0.7766067     0.4271106    -0.4281032
H          -1.4339199     1.1175338     0.0941124
C           0.2159834    -0.2435519     0.2980458
C           0.3379299    -0.0029235     1.7876207
H          -0.3772156     0.7557767     2.1165741
H           1.3376979     0.3442662     2.0791005
H           0.1348732    -0.9134631     2.3655984
C           1.0554894    -1.1464365    -0.3913283
C           2.1537746    -1.9116280     0.3118912
H           2.2650860    -2.9015053    -0.1450673
H           1.8698141    -2.0741852     1.3603550
N           5.9814006     0.0810774     0.6018294
H           5.7904962     0.7087334     1.3936637
H           6.9544575     0.2510994     0.3247259
C           5.8098372    -1.3575368     1.0650206
H           6.4721853    -1.5046793     1.9217093
H           6.1288921    -1.9865352     0.2316897
C           4.3408824    -1.5955180     1.4052492
H           4.0791841    -1.0317866     2.3258415
H           4.2319529    -2.6581011     1.6450638
N           3.5011335    -1.2617690     0.2751255
C           3.6055758     0.1326943    -0.1044075
H           3.3194648     0.8399871     0.7026693
H           2.9470597     0.3379230    -0.9506434
C           5.0349031     0.4368236    -0.5382759
H           5.1903559     1.4940665    -0.7669631
H           5.3334958    -0.1811491    -1.3873074
33
019_C12H19N2+_13-14-26-27 (30,) energy =    -577.9850889
C           0.6375471     0.9638933     0.1321901
H           1.1452149     1.8433031    -0.2588595
C          -0.4674266     1.1135907     0.9676505
H          -0.8199773     2.1063848     1.2308977
C          -1.1210045    -0.0226797     1.4448303
H          -1.9894182     0.0728351     2.0902374
C          -0.6636640    -1.2891124     1.0825956
H          -1.1843007    -2.1695856     1.4501224
C           0.4492405    -1.4600641     0.2475193
C           0.8880180    -2.8605036    -0.1255564
H           0.2723867    -3.6056470     0.3853991
H           1.9325370    -3.0611980     0.1450706
H           0.7948463    -3.0456485    -1.2029584
C           1.1081441    -0.3066026    -0.2309546
C           2.3165434    -0.3879633    -1.1369548
H           2.2453024     0.3725369    -1.9233574
H           2.3371247    -1.3655587    -1.6398073
N           6.1838669    -0.2156383     0.7694303
H           6.3515122    -1.2232090     0.8874988
H           7.0101591     0.2619533     1.1459836
C           6.0324521     0.0849888    -0.7140766
H           6.9320530    -0.2821991    -1.2141063
H           5.9727599     1.1716264    -0.8007283
C           4.7584868    -0.5808450    -1.2268596
H           4.8926484    -1.6833849    -1.2336022
H           4.6265069    -0.2742149    -2.2698464
N           3.6173560    -0.1524646    -0.4463815
C           3.7303682    -0.5251777     0.9503103
H           3.8201376    -1.6204075     1.1139642
H           2.8425113    -0.1950799     1.4934210
C           4.9411719     0.1661426     1.5649091
H           5.1173381    -0.1332724     2.6009183
H           4.8557289     1.2523272     1.4953628
33
019_C12H19N2+_13-14-26-27 (45,) energy =    -577.9872318
C           0.7466142     0.9165668     0.1182597
H           1.3275883     1.7526991    -0.2649096
C          -0.3655029     1.1575190     0.9210339
H          -0.6540954     2.1758019     1.1645871
C          -1.1110152     0.0769852     1.3938205
H          -1.9862074     0.2443562     2.0149535
C          -0.7361448    -1.2231138     1.0594746
H          -1.3266314    -2.0592361     1.4248863
C           0.3831606    -1.4856595     0.2559926
C           0.7262847    -2.9214460    -0.0836545
H           0.0388176    -3.6084682     0.4170592
H           1.7424389    -3.1966730     0.2264613
H           0.6540958    -3.1177676    -1.1604191
C           1.1344482    -0.3893330    -0.2183757
C           2.3535051    -0.5627066    -1.0994035
H           2.2695900     0.0772012    -1.9857876
H           2.4210628    -1.6003084    -1.4598218
N           6.2082230    -0.1008477     0.7569001
H           6.4710901    -1.0941357     0.7925404
H           6.9925914     0.4216561     1.1624717
C           6.0038416     0.3000270    -0.6961489
H           6.9245344     0.0599184    -1.2333281
H           5.8417351     1.3796700    -0.6951441
C           4.7888120    -0.4395318    -1.2476396
H           5.0187863    -1.5227065    -1.3310698
H           4.6156971    -0.0752827    -2.2657334
N           3.6214973    -0.1689360    -0.4302377
C           3.7954386    -0.6437316     0.9320478
H           3.9816849    -1.7370069     0.9953962
H           2.8893942    -0.4393228     1.5070944
C           4.9492936     0.0999019     1.5915255
H           5.1671418    -0.2652992     2.5979615
H           4.7654972     1.1758766     1.6133923
33
019_C12H19N2+_13-14-26-27 (60,) energy =    -577.9884025
C           0.8539659     0.8556102     0.1219671
H           1.5199274     1.6390659    -0.2317961
C          -0.2735361     1.1885144     0.8679801
H          -0.4911849     2.2282868     1.0941885
C          -1.1243169     0.1742085     1.3090303
H          -2.0115210     0.4142434     1.8878662
C          -0.8374601    -1.1534139     0.9980253
H          -1.5077526    -1.9380807     1.3390408
C           0.2947693    -1.5090690     0.2499623
C           0.5386079    -2.9700414    -0.0686503
H          -0.2331866    -3.5953240     0.3881157
H           1.5068192    -3.3263291     0.3060591
H           0.5180702    -3.1661725    -1.1475214
C           1.1522936    -0.4790023    -0.1906516
C           2.3899963    -0.7585429    -1.0215509
H           2.3026605    -0.2643258    -1.9970675
H           2.4976075    -1.8356973    -1.2202963
N           6.2359011     0.0169696     0.7200775
H           6.5989769    -0.9437998     0.6764455
H           6.9779931     0.5888705     1.1384670
C           5.9383268     0.4927435    -0.6940195
H           6.8577596     0.3853865    -1.2743801
H           5.6689585     1.5475268    -0.6110996
C           4.7841168    -0.3272053    -1.2615151
H           5.1144263    -1.3757457    -1.4170097
H           4.5459836     0.0788163    -2.2499837
N           3.6208025    -0.2183239    -0.3972370
C           3.8951173    -0.7712163     0.9207762
H           4.1829032    -1.8431783     0.8872919
H           2.9934917    -0.6983276     1.5350732
C           4.9950239     0.0297785     1.6037880
H           5.2826072    -0.3867663     2.5719707
H           4.7095998     1.0775891     1.7160469
33
019_C12H19N2+_13-14-26-27 (75,) energy =    -577.9878009
C           0.9876958     0.7531898     0.2533079
H           1.7694939     1.4689410     0.0152577
C          -0.1747909     1.1797094     0.8921370
H          -0.3021169     2.2273923     1.1492766
C          -1.1730586     0.2523651     1.1888706
H          -2.0864367     0.5682357     1.6845522
C          -0.9978496    -1.0859375     0.8410372
H          -1.7805277    -1.8045971     1.0697776
C           0.1648545    -1.5348705     0.1995447
C           0.2879336    -2.9983663    -0.1700659
H          -0.5964618    -3.5521996     0.1560808
H           1.1589480    -3.4760417     0.2973750
H           0.3816161    -3.1450645    -1.2531613
C           1.1734035    -0.5920613    -0.0929122
C           2.4415773    -0.9992062    -0.8253369
H           2.3578968    -0.7226622    -1.8846025
H           2.5833360    -2.0902429    -0.8013539
N           6.2950827     0.1768336     0.6376325
H           6.7547185    -0.7382198     0.5472542
H           7.0002013     0.8191933     1.0159044
C           5.8480626     0.6384306    -0.7417094
H           6.7297843     0.6392072    -1.3868155
H           5.4742855     1.6566748    -0.6169731
C           4.7501126    -0.2920978    -1.2463306
H           5.1763713    -1.2992802    -1.4360413
H           4.4079629     0.0949317    -2.2111206
N           3.6405429    -0.3074221    -0.3039819
C           4.0672356    -0.8513185     0.9784768
H           4.4536302    -1.8881333     0.8938636
H           3.2084374    -0.8799246     1.6560136
C           5.1272162     0.0437170     1.6060102
H           5.5242731    -0.3616083     2.5396175
H           4.7463155     1.0538721     1.7685807
33
019_C12H19N2+_13-14-26-27 (90,) energy =    -577.9857923
C           1.0938317     0.6465740     0.4651158
H           1.9659903     1.2896941     0.4012144
C          -0.1105878     1.1493863     0.9583379
H          -0.1746676     2.1845158     1.2816726
C          -1.2263489     0.3181208     1.0263781
H          -2.1709605     0.6952801     1.4072970
C          -1.1274220    -1.0055897     0.5973086
H          -2.0002151    -1.6516741     0.6464622
C           0.0724975    -1.5286833     0.1017647
C           0.1274934    -2.9665366    -0.3653856
H          -0.8503989    -3.4444986    -0.2632219
H           0.8431272    -3.5648361     0.2147206
H           0.4217179    -3.0478070    -1.4197648
C           1.2007250    -0.6817361     0.0409738
C           2.5074770    -1.2146504    -0.5281967
H           2.4504712    -1.2123071    -1.6251509
H           2.6586125    -2.2676073    -0.2446904