17
287_C6H7ClN2O_1-0-9-10 (-165,) energy =    -877.7836824
C           2.7906708    -0.8823210    -1.2686817
N           1.4486389    -0.6651915    -1.2093348
C           0.4999949    -1.4662041    -1.9612632
H          -0.1614510    -0.8260513    -2.5558277
H          -0.1138531    -2.0885435    -1.2981077
H           1.0698309    -2.1126623    -2.6293347
H           1.0989595     0.0066936    -0.5399685
C           3.4983598     0.8830051     0.6214403
Cl          2.0037799     1.3131936     1.4137861
C           3.6495376    -0.0263705    -0.4211247
N           4.9913516    -0.0304759    -0.7196611
H           5.3500940    -0.6449137    -1.4394468
C           5.6739747     0.8163498     0.0977567
H           6.7438246     0.9413574     0.0158447
C           4.7660917     1.4113148     0.9572212
H           4.9786121     2.1348740     1.7306758
O           3.3192293    -1.7019906    -2.0268401
17
287_C6H7ClN2O_1-0-9-10 (-150,) energy =    -877.7812774
C           2.7646270    -1.0073916    -1.1850585
N           1.4556912    -0.6401913    -1.2714841
C           0.4742247    -1.4457807    -1.9765440
H          -0.1757522    -0.8049190    -2.5811316
H          -0.1478393    -2.0298184    -1.2856861
H           1.0151279    -2.1313275    -2.6296457
H           1.1295266     0.1039071    -0.6695637
C           3.5036702     0.7810180     0.6620344
Cl          2.0289819     1.1468735     1.5210353
C           3.6450377    -0.1353610    -0.3737561
N           4.9656267    -0.0715134    -0.7517316
H           5.3290358    -0.6927993    -1.4625769
C           5.6498748     0.8140311     0.0249620
H           6.7064701     0.9895468    -0.1153677
C           4.7612868     1.3723303     0.9268277
H           4.9793784     2.1125444     1.6827578
O           3.2568885    -1.9394607    -1.8267829
17
287_C6H7ClN2O_1-0-9-10 (-135,) energy =    -877.7774778
C           2.7548464    -1.0895084    -1.1002298
N           1.4980271    -0.6107262    -1.3273363
C           0.4834643    -1.4021239    -2.0026122
H          -0.0752869    -0.7761537    -2.7056883
H          -0.2214892    -1.8558743    -1.2938012
H           0.9933922    -2.1951952    -2.5505144
H           1.2043724     0.2038091    -0.8048547
C           3.5103950     0.6938826     0.7306573
Cl          2.0586458     0.9518532     1.6638856
C           3.6532456    -0.2007112    -0.3208137
N           4.9403816    -0.0400128    -0.7795576
H           5.3206236    -0.6359539    -1.5023368
C           5.6101240     0.8786128    -0.0243933
H           6.6436228     1.1234365    -0.2213450
C           4.7410870     1.3641807     0.9346332
H           4.9536901     2.1068528     1.6896958
O           3.2004064    -2.1121126    -1.6232523
17
287_C6H7ClN2O_1-0-9-10 (-120,) energy =    -877.7728488
C           2.7425645    -1.1567266    -1.0134830
N           1.5569882    -0.5916157    -1.3870963
C           0.5053915    -1.3616689    -2.0307419
H           0.0501232    -0.7764469    -2.8360553
H          -0.2773364    -1.6591401    -1.3209717
H           0.9628979    -2.2589295    -2.4489839
H           1.3172118     0.3001342    -0.9750025
C           3.5315611     0.6138076     0.7990467
Cl          2.1181539     0.7560172     1.8110295
C           3.6660159    -0.2443009    -0.2801871
N           4.9079141     0.0123914    -0.8157497
H           5.2955868    -0.5373019    -1.5696257
C           5.5655407     0.9542076    -0.0728185
H           6.5691931     1.2656526    -0.3228052
C           4.7294029     1.3579052     0.9486714
H           4.9410993     2.0933232     1.7110343
O           3.1131820    -2.2694359    -1.3823653
17
287_C6H7ClN2O_1-0-9-10 (-105,) energy =    -877.7684276
C           2.7124097    -1.2003650    -0.9207661
N           1.6155107    -0.5888704    -1.4591135
C           0.5327761    -1.3425199    -2.0704713
H           0.1896785    -0.8391603    -2.9800109
H          -0.3175812    -1.4624985    -1.3871146
H           0.9214921    -2.3289454    -2.3259543
H           1.4467136     0.3723766    -1.1951055
C           3.5668626     0.5392090     0.8760820
Cl          2.2171344     0.5623944     1.9785859
C           3.6646243    -0.2563235    -0.2507288
N           4.8538190     0.0842107    -0.8566321
H           5.2262655    -0.4029563    -1.6588502
C           5.5185369     1.0227785    -0.1099626
H           6.4884828     1.3913940    -0.4101036
C           4.7372255     1.3362271     0.9816319
H           4.9652278     2.0463822     1.7629853
O           2.9766952    -2.3873564    -1.0810478
17
287_C6H7ClN2O_1-0-9-10 (-90,) energy =    -877.7656759
C           2.6339593    -1.1928227    -0.8250920
N           1.6455539    -0.5978752    -1.5584503
C           0.5559651    -1.3562621    -2.1512387
H           0.3349470    -0.9798439    -3.1551761
H          -0.3551799    -1.3035025    -1.5419148
H           0.8745805    -2.3974373    -2.2141706
H           1.5565420     0.4063603    -1.4864672
C           3.6185096     0.4742938     0.9638053
Cl          2.3782114     0.3833456     2.1822756
C           3.6118306    -0.2148826    -0.2329944
N           4.7482275     0.1757532    -0.9081423
H           5.0446163    -0.2192465    -1.7882289
C           5.4722938     1.0623075    -0.1499198
H           6.4093045     1.4662383    -0.5043032
C           4.7883580     1.2780452     1.0262049
H           5.0790442     1.9290091     1.8377330
O           2.7636588    -2.4051687    -0.7158476
17
287_C6H7ClN2O_1-0-9-10 (-75,) energy =    -877.7655117
C           2.5540897    -1.1402941    -0.7175162
N           1.6869836    -0.6112257    -1.6364345
C           0.6117674    -1.3924394    -2.2253272
H           0.5165874    -1.1659925    -3.2922887
H          -0.3491899    -1.1975115    -1.7325222
H           0.8604910    -2.4464980    -2.0963938
H           1.6586994     0.3954656    -1.7211734
C           3.6898872     0.4287320     1.0621126
Cl          2.5859290     0.2371579     2.3917790
C           3.5452255    -0.1446272    -0.1867699
N           4.6231099     0.2860905    -0.9343014
H           4.8281686    -0.0381149    -1.8676287
C           5.4306921     1.1009152    -0.1811558
H           6.3329773     1.5292770    -0.5924754
C           4.8673522     1.2222825     1.0705141
H           5.2409051     1.8084337     1.8974154
O           2.5479461    -2.3148549    -0.3766757
17
287_C6H7ClN2O_1-0-9-10 (-60,) energy =    -877.7671987
C           2.4532138    -1.1602468    -0.5952159
N           1.7258214    -0.7157610    -1.6735408
C           0.6432323    -1.5106580    -2.2316564
H           0.5162281    -1.2700240    -3.2911846
H          -0.3067364    -1.3393113    -1.7085632
H           0.9044170    -2.5644724    -2.1253811
H           1.7329615     0.2783773    -1.8570018
C           3.7298285     0.3420626     1.1384805
Cl          2.7476918     0.1092519     2.5515782
C           3.4730047    -0.1786655    -0.1176449
N           4.4942665     0.2707487    -0.9345060
H           4.6141761    -0.0191628    -1.8936507
C           5.3658932     1.0524606    -0.2223749
H           6.2362129     1.4901046    -0.6892270
C           4.9071657     1.1309415     1.0758393
H           5.3523145     1.6845522     1.8896350
O           2.2915955    -2.2590331    -0.0838804
17
287_C6H7ClN2O_1-0-9-10 (-45,) energy =    -877.7693054
C           2.4200998    -1.0711886    -0.5444828
N           1.8470424    -0.7056493    -1.7460591
C           0.7469550    -1.4848407    -2.2955959
H           0.6233007    -1.2385144    -3.3536399
H          -0.1982220    -1.2995971    -1.7684781
H           0.9854181    -2.5449818    -2.1957078
H           1.8915034     0.2746932    -1.9915002
C           3.7918515     0.3438856     1.1848650
Cl          2.8873638     0.0669686     2.6387300
C           3.4719975    -0.1329334    -0.0764390
N           4.4456565     0.3585018    -0.9293648
H           4.5314963     0.0776678    -1.8950618
C           5.3508235     1.1140754    -0.2338171
H           6.1985759     1.5679467    -0.7261718
C           4.9601392     1.1414809     1.0893207
H           5.4444068     1.6681138     1.8986781
O           2.1006347    -2.0836363     0.0623189
17
287_C6H7ClN2O_1-0-9-10 (-30,) energy =    -877.7707188
C           2.3575647    -1.0273172    -0.5041478
N           1.9068650    -0.7511187    -1.7859834
C           0.7782357    -1.5040802    -2.3172026
H           0.7091504    -1.3329072    -3.3948363
H          -0.1722795    -1.2245653    -1.8438685
H           0.9463601    -2.5658196    -2.1301076
H           1.9885851     0.2114640    -2.0887645
C           3.8313409     0.2877686     1.2120703
Cl          3.0117399    -0.0523025     2.7002741
C           3.4526475    -0.1434250    -0.0513702
N           4.3653356     0.4128141    -0.9343313
H           4.4304390     0.1373518    -1.9034924
C           5.2992304     1.1451165    -0.2533150
H           6.1159639     1.6303969    -0.7678715
C           4.9811741     1.1073923     1.0889792
H           5.5009325     1.6059246     1.8940828
O           1.9088803    -1.9450238     0.1685645
17
287_C6H7ClN2O_1-0-9-10 (-15,) energy =    -877.7707001
C           2.3149849    -0.9626262    -0.4720331
N           1.9663897    -0.7955341    -1.8077373
C           0.8066622    -1.5179459    -2.3172241
H           0.7855759    -1.4315862    -3.4069190
H          -0.1391698    -1.1428953    -1.9044438
H           0.8990531    -2.5693345    -2.0407290
H           2.0977493     0.1366594    -2.1817994
C           3.8812483     0.2467241     1.2298699
Cl          3.1353290    -0.1615266     2.7377753
C           3.4603031    -0.1422104    -0.0356291
N           4.3168377     0.4841907    -0.9310777
H           4.3797469     0.2196187    -1.9036821
C           5.2694025     1.1972080    -0.2547309
H           6.0568767     1.7181052    -0.7801580
C           5.0117618     1.0913468     1.0960463
H           5.5570105     1.5621433     1.9009681
O           1.7544344    -1.7731166     0.2532368
17
287_C6H7ClN2O_1-0-9-10 (0,) energy =    -877.7690237
C           2.2680425    -0.8990200    -0.4682584
N           2.0057279    -0.8656814    -1.8356338
C           0.8104625    -1.5495611    -2.3190396
H           0.8410309    -1.5826301    -3.4114191
H          -0.1183334    -1.0613982    -1.9953409
H           0.8077429    -2.5677633    -1.9275666
H           2.2028152     0.0152641    -2.2961362
C           3.9153564     0.1881980     1.2276441
Cl          3.2321313    -0.3084688     2.7374472
C           3.4595089    -0.1413163    -0.0443035
N           4.2715408     0.5595348    -0.9294017
H           4.3345685     0.3339327    -1.9117630
C           5.2400555     1.2418073    -0.2432448
H           6.0030165     1.8025910    -0.7639097
C           5.0327307     1.0518836     1.1061057
H           5.6000685     1.4810007     1.9190064
O           1.6111116    -1.5887272     0.3004343
17
287_C6H7ClN2O_1-0-9-10 (15,) energy =    -877.7706998
C           2.2693280    -0.0078742    -1.3807884
N           2.0388308    -1.3792571    -1.3508527
C           0.8634431    -1.9001803    -2.0392082
H          -0.0749360    -1.6263692    -1.5390172
H           0.9388359    -2.9894533    -2.0959050
H           0.8376115    -1.4873794    -3.0487372
H           2.2743853    -1.8429644    -0.4814390
C           3.7992117     1.6705570    -0.0941635
Cl          2.9094783     3.1463876    -0.2586651
C           3.4437164     0.4273006    -0.6020850
N           4.4153508    -0.4582715    -0.1555194
H           4.5278784    -1.3853114    -0.5400249
C           5.3706737     0.2093495     0.5618242
H           6.2373747    -0.3033123     0.9536714
C           5.0037791     1.5365896     0.6408591
H           5.5244811     2.3251124     1.1642570
O           1.5890000     0.7553174    -2.0529508
17
287_C6H7ClN2O_1-0-9-10 (30,) energy =    -877.7707190
C           2.3124023    -0.0233088    -1.4445729
N           1.9850417    -1.3624479    -1.2950137
C           0.8395437    -1.8963733    -2.0201305
H          -0.1167992    -1.5447363    -1.6109461
H           0.8689588    -2.9886442    -1.9818017
H           0.8999166    -1.5695241    -3.0593760
H           2.1704277    -1.7668580    -0.3855836
C           3.7597903     1.6465514    -0.0426480
Cl          2.8053271     3.0897877    -0.1333993
C           3.4417605     0.4147765    -0.5972288
N           4.4623908    -0.4464504    -0.2251847
H           4.5749196    -1.3689453    -0.6197755
C           5.4009603     0.2204311     0.5138903
H           6.2924924    -0.2762628     0.8685308
C           4.9810631     1.5261308     0.6664493
H           5.4796946     2.3084340     1.2198416
O           1.7376007     0.7111912    -2.2358594
17
287_C6H7ClN2O_1-0-9-10 (45,) energy =    -877.7693058
C           2.3738954    -0.0529594    -1.4973596
N           1.9261388    -1.3333727    -1.2405767
C           0.8080249    -1.8796049    -1.9960665
H          -0.1551322    -1.4619781    -1.6744189
H           0.7873693    -2.9661351    -1.8757682
H           0.9456566    -1.6341538    -3.0503541
H           2.0722659    -1.6868488    -0.3040905
C           3.7272597     1.6093434     0.0125004
Cl          2.6957079     3.0035235    -0.0137350
C           3.4637161     0.3897914    -0.5906404
N           4.5370972    -0.4289486    -0.2831432
H           4.6712045    -1.3443053    -0.6868128
C           5.4485383     0.2479358     0.4817804
H           6.3665255    -0.2202584     0.8061137
C           4.9631924     1.5208129     0.7015655
H           5.4283418     2.3012757     1.2858841
O           1.9246534     0.6387238    -2.4001675
17
287_C6H7ClN2O_1-0-9-10 (60,) energy =    -877.7671986
C           2.4046825    -0.0913246    -1.5921781
N           1.8017941    -1.2724591    -1.2304013
C           0.7006484    -1.8244015    -2.0038456
H          -0.2681708    -1.4086131    -1.6973695
H           0.6757574    -2.9118191    -1.8874627
H           0.8617080    -1.5731404    -3.0531099
H           1.9076557    -1.5694632    -0.2698768
C           3.6698665     1.5576880     0.0117832
Cl          2.5672789     2.8991911     0.0301156
C           3.4654293     0.3537449    -0.6390918
N           4.5802639    -0.4197448    -0.3725443
H           4.7472474    -1.3246419    -0.7868638
C           5.4589485     0.2679319     0.4230685
H           6.3961136    -0.1709193     0.7330211
C           4.9117799     1.5042252     0.6953117
H           5.3397362     2.2828221     1.3097597
O           2.1114257     0.5293077    -2.6039689
17
287_C6H7ClN2O_1-0-9-10 (75,) energy =    -877.7655111
C           2.5158146    -0.2064116    -1.5958354
N           1.7685857    -1.2509008    -1.1194778
C           0.6784285    -1.8348230    -1.8834970
H          -0.2973103    -1.4568109    -1.5529088
H           0.6877913    -2.9255875    -1.7887792
H           0.8223495    -1.5577371    -2.9284994
H           1.8332532    -1.4546405    -0.1316995
C           3.6434267     1.4689727     0.0895529
Cl          2.4299515     2.7130210     0.1463561
C           3.5451979     0.2874807    -0.6202262
N           4.7090817    -0.4106169    -0.3668624
H           4.9557987    -1.2788855    -0.8179720
C           5.5238936     0.3086915     0.4710281
H           6.4878587    -0.0712474     0.7763396
C           4.8800651     1.4852418     0.7871903
H           5.2386036     2.2671722     1.4405787
O           2.3840594     0.2668952    -2.7158458
17
287_C6H7ClN2O_1-0-9-10 (90,) energy =    -877.7656758
C           2.5987698    -0.2998715    -1.6670074
N           1.7228239    -1.1788964    -1.0936224
C           0.6205672    -1.7704794    -1.8344149
H          -0.3271881    -1.2548647    -1.6341462
H           0.5124863    -2.8280074    -1.5727834
H           0.8505849    -1.6793987    -2.8966348
H           1.7149722    -1.2324434    -0.0843367
C           3.5837263     1.3602844     0.1280989
Cl          2.2517585     2.4709729     0.2814420
C           3.6088357     0.2555980    -0.7003734
N           4.8220777    -0.3611638    -0.4824365
H           5.1494554    -1.1607004    -1.0039629
C           5.5596823     0.3476800     0.4333341
H           6.5517955     0.0299514     0.7188160
C           4.8096818     1.4281236     0.8428617
H           5.0925818     2.1801846     1.5648028
O           2.6161643    -0.0396788    -2.8630596
17
287_C6H7ClN2O_1-0-9-10 (105,) energy =    -877.7684275
C           2.6834081    -0.3872516    -1.6922900
N           1.6860226    -1.0840116    -1.0704593
C           0.5924332    -1.6941105    -1.8092686
H          -0.3171492    -1.0812274    -1.7713992
H           0.3697486    -2.6861971    -1.4035007
H           0.9103057    -1.7898271    -2.8481131
H           1.5807778    -0.9494255    -0.0739753
C           3.5446248     1.2617774     0.1849360
Cl          2.1225962     2.2355879     0.4443968
C           3.6590864     0.2472149    -0.7476363
N           4.9151073    -0.2909531    -0.5742457
H           5.3042065    -0.9967009    -1.1826240
C           5.5989773     0.3955622     0.3959602
H           6.6165346     0.1381490     0.6510562
C           4.7671167     1.3731507     0.8985504
H           4.9950718     2.0833967     1.6798348
O           2.8573395    -0.3855784    -2.9064726
17
287_C6H7ClN2O_1-0-9-10 (120,) energy =    -877.7728487
C           2.7243242    -0.4817754    -1.6628803
N           1.6222346    -1.0171090    -1.0601402
C           0.5606284    -1.6549387    -1.8211828
H          -0.3015047    -0.9894022    -1.9575647
H           0.2283739    -2.5661797    -1.3135403
H           0.9666920    -1.9132621    -2.7998011
H           1.4294854    -0.7339653    -0.1087328
C           3.5216772     1.1740373     0.2515103
Cl          2.0533953     2.0394823     0.6218999
C           3.6639070     0.2166641    -0.7396539
N           4.9597449    -0.2380062    -0.6440940
H           5.3551748    -0.8876940    -1.3091719
C           5.6369112     0.4440548     0.3293800
H           6.6792419     0.2455848     0.5317724
C           4.7635069     1.3374514     0.9163718
H           4.9787445     2.0247691     1.7214309
O           3.0261429    -0.6865868    -2.8369869
17
287_C6H7ClN2O_1-0-9-10 (135,) energy =    -877.7774778
C           2.7485433    -0.5742232    -1.6078314
N           1.5575570    -0.9611200    -1.0672304
C           0.5331745    -1.6242187    -1.8562288
H          -0.2646408    -0.9323034    -2.1560930
H           0.0916587    -2.4470933    -1.2848887
H           1.0118358    -2.0216954    -2.7518146
H           1.2961548    -0.5643706    -0.1745227
C           3.5125691     1.0950478     0.3243367
Cl          2.0217909     1.8654291     0.8029931
C           3.6578192     0.1703413    -0.7004158
N           4.9848223    -0.1930060    -0.6942854
H           5.3665174    -0.8068868    -1.4011070
C           5.6712726     0.5046735     0.2568901
H           6.7336976     0.3691370     0.3973589
C           4.7767950     1.3236550     0.9201449
H           4.9941356     2.0028170     1.7315533
O           3.1438809    -0.9352318    -2.7174177
17
287_C6H7ClN2O_1-0-9-10 (150,) energy =    -877.7812781
C           2.7733649    -0.6617346    -1.5247156
N           1.5093091    -0.9008323    -1.0771642
C           0.5221276    -1.5925003    -1.8871696
H          -0.2052334    -0.8974277    -2.3265324
H          -0.0151791    -2.3292448    -1.2810500
H           1.0524577    -2.1036237    -2.6912900
H           1.2018605    -0.4225984    -0.2410665
C           3.5139106     1.0266099     0.4137120
Cl          2.0126790     1.7084688     0.9860215
C           3.6580576     0.1161536    -0.6267253
N           5.0042121    -0.1529193    -0.7047233
H           5.3688257    -0.7546133    -1.4315955
C           5.6976454     0.5743664     0.2151857
H           6.7728927     0.5069916     0.2938234
C           4.7920371     1.3288964     0.9398104
H           5.0118001     2.0121068     1.7471901
O           3.2356353    -1.1464735    -2.5611172
17
287_C6H7ClN2O_1-0-9-10 (165,) energy =    -877.7836772
C           2.7884517    -0.7552666    -1.4502198
N           1.4750233    -0.8482137    -1.1065831
C           0.5122814    -1.5656420    -1.9225553
H          -0.1394668    -0.8799065    -2.4793606
H          -0.1103669    -2.2127939    -1.2957651
H           1.0690393    -2.1774290    -2.6330235
H           1.1407404    -0.2955535    -0.3289782
C           3.5238410     0.9447565     0.4884836
Cl          2.0238912     1.5351660     1.1580057
C           3.6618794     0.0478319    -0.5665867
N           5.0153953    -0.1238139    -0.7342503
H           5.3640321    -0.7230769    -1.4715765
C           5.7154569     0.6344526     0.1524196
H           6.7955981     0.6348132     0.1673451
C           4.8089598     1.3226951     0.9408082
H           5.0335248     2.0113351     1.7422264
O           3.2877622    -1.3502403    -2.4107791
17
287_C6H7ClN2O_1-0-9-10 (180,) energy =    -877.7844986
C           2.7935871    -0.8162463    -1.3258884
N           1.4498871    -0.7538334    -1.1241275
C           0.5092955    -1.5249892    -1.9156430
H          -0.1679302    -0.8686013    -2.4753414
H          -0.0887543    -2.1880368    -1.2793677
H           1.0850422    -2.1271292    -2.6190885
H           1.0968610    -0.1368895    -0.4056231
C           3.4966863     0.9322710     0.5845728
Cl          1.9923596     1.4434927     1.3072797
C           3.6486036     0.0234307    -0.4590468
N           5.0017936    -0.0597517    -0.6852392
H           5.3570026    -0.6731327    -1.4079310
C           5.6882623     0.7492743     0.1657163
H           6.7660450     0.8161549     0.1367255
C           4.7729205     1.3922831     0.9819579
H           4.9860322     2.1040604     1.7661174
O           3.3258861    -1.5304430    -2.1825522
