22
435_C10H10N2_10-9-18-16 (-165,) energy =    -496.5651345
C           5.7214744     1.1243673    -0.0353253
H           6.5557801     1.8154260     0.0443417
C           5.8592145    -0.1902848     0.3973203
H           6.8127166    -0.5205511     0.8022243
C           4.8198655    -1.1305121     0.3145701
C           5.1231158    -2.5467919     0.7527790
H           6.2040209    -2.6750128     0.8603444
H           4.7721621    -3.2888272     0.0278560
H           4.6758850    -2.7944902     1.7245120
C           3.5858695    -0.6860248    -0.2105828
C           3.4522852     0.6317345    -0.6756980
H           2.5028703     0.9286149    -1.1016389
C           4.5072355     1.5310577    -0.5868295
H           4.3753606     2.5471497    -0.9479158
C           0.9369666    -3.1566459    -0.3127989
H           0.4005862    -4.0627155    -0.0710352
C           2.1409939    -2.7406505     0.2103093
H           2.7555608    -3.1858071     0.9717118
N           2.4412822    -1.5308376    -0.3611055
N           1.4754715    -1.1604666    -1.2509704
C           0.5749297    -2.1338622    -1.2160030
H          -0.3020525    -2.0668684    -1.8469890
22
435_C10H10N2_10-9-18-16 (-150,) energy =    -496.5668965
C           5.7144207     1.1298769     0.0134531
H           6.5439075     1.8240436     0.1146943
C           5.8674471    -0.1993537     0.3965781
H           6.8264725    -0.5377916     0.7815583
C           4.8328260    -1.1402074     0.2801926
C           5.1230143    -2.5776865     0.6513216
H           6.2026608    -2.7542492     0.6343185
H           4.6551998    -3.2843249    -0.0413167
H           4.7755748    -2.8300547     1.6620317
C           3.5972046    -0.6809102    -0.2212432
C           3.4446254     0.6499138    -0.6345609
H           2.4894158     0.9527171    -1.0457351
C           4.4954486     1.5518833    -0.5179891
H           4.3582251     2.5807699    -0.8383605
C           0.9182693    -3.1058662    -0.2244707
H           0.3328369    -3.9518804     0.1051831
C           2.0802618    -2.6274824     0.3407286
H           2.6183858    -2.9440538     1.2186373
N           2.4689311    -1.5382802    -0.3915662
N           1.6037861    -1.2948309    -1.4161034
C           0.6741362    -2.2378108    -1.3117536
H          -0.1372133    -2.2634162    -2.0278178
22
435_C10H10N2_10-9-18-16 (-135,) energy =    -496.5676797
C           5.6992810     1.1344161     0.0500624
H           6.5192560     1.8363020     0.1740026
C           5.8752381    -0.2060502     0.3843949
H           6.8401596    -0.5436081     0.7552818
C           4.8512615    -1.1527838     0.2346838
C           5.1304227    -2.6025297     0.5610483
H           6.2043330    -2.8020122     0.4941320
H           4.6143426    -3.2821770    -0.1237978
H           4.8189396    -2.8683202     1.5798751
C           3.6131843    -0.6906868    -0.2515458
C           3.4321389     0.6516203    -0.6054492
H           2.4691792     0.9554352    -0.9995355
C           4.4723071     1.5629209    -0.4585589
H           4.3216884     2.6025683    -0.7350444
C           0.8820743    -3.0424991    -0.1545078
H           0.2413795    -3.8144681     0.2464543
C           2.0171676    -2.5172197     0.4247806
H           2.4920122    -2.7176446     1.3725846
N           2.5039610    -1.5695409    -0.4320815
N           1.7236743    -1.4459513    -1.5408471
C           0.7516164    -2.3374492    -1.3722617
H          -0.0068365    -2.4459110    -2.1369401
22
435_C10H10N2_10-9-18-16 (-120,) energy =    -496.5673549
C           5.6861837     1.1469351     0.0794586
H           6.4979580     1.8548412     0.2225822
C           5.8860917    -0.2039433     0.3573861
H           6.8590576    -0.5415073     0.7064547
C           4.8704757    -1.1538596     0.1795989
C           5.1411565    -2.6148333     0.4552921
H           6.2159571    -2.8163431     0.4135967
H           4.6417735    -3.2618379    -0.2723364
H           4.7937738    -2.9198282     1.4509134
C           3.6257706    -0.6878363    -0.2799197
C           3.4162646     0.6641775    -0.5673051
H           2.4434755     0.9722968    -0.9349921
C           4.4474359     1.5826541    -0.3935879
H           4.2816282     2.6318462    -0.6207403
C           0.8354760    -2.9586291    -0.1304942
H           0.1331957    -3.6489261     0.3140151
C           1.9314678    -2.3786692     0.4724215
H           2.3217716    -2.4516753     1.4767483
N           2.5315858    -1.5871547    -0.4654316
N           1.8580046    -1.6023113    -1.6476696
C           0.8426995    -2.4381366    -1.4445105
H           0.1524364    -2.6404280    -2.2534986
22
435_C10H10N2_10-9-18-16 (-105,) energy =    -496.5665429
C           5.7237762     1.1285378     0.0876577
H           6.5463327     1.8255108     0.2234250
C           5.9301279    -0.2348816     0.2973491
H           6.9153589    -0.5911191     0.5882812
C           4.8986577    -1.1675374     0.1274013
C           5.1443711    -2.6438477     0.3291976
H           6.2173522    -2.8522159     0.3768029
H           4.7141829    -3.2317678    -0.4881582
H           4.6943286    -3.0118163     1.2595287
C           3.6392462    -0.6746115    -0.2537702
C           3.4230757     0.6870183    -0.4716712
H           2.4357150     1.0171564    -0.7783890
C           4.4679807     1.5934397    -0.3044997
H           4.3008670     2.6528029    -0.4765822
C           0.8119913    -2.9005140    -0.0763219
H           0.0495379    -3.5088943     0.3883275
C           1.8143486    -2.1908120     0.5529254
H           2.0655327    -2.0662007     1.5965411
N           2.5395068    -1.5753845    -0.4249597
N           2.0483189    -1.8346925    -1.6662728
C           1.0095430    -2.6402385    -1.4508290
H           0.4391343    -3.0065638    -2.2948795
22
435_C10H10N2_10-9-18-16 (-90,) energy =    -496.5667047
C           5.7795293     1.0921205     0.0906957
H           6.6274218     1.7602216     0.2157324
C           5.9612556    -0.2865582     0.2113081
H           6.9512406    -0.6815104     0.4258743
C           4.8958436    -1.1812321     0.0564753
C           5.0969195    -2.6723812     0.1685407
H           6.1530540    -2.9123912     0.3218835
H           4.7512522    -3.1817085    -0.7372484
H           4.5282702    -3.0933658     1.0064942
C           3.6298972    -0.6365746    -0.2195561
C           3.4397978     0.7381805    -0.3566023
H           2.4471682     1.1104680    -0.5909355
C           4.5168034     1.6096806    -0.1963481
H           4.3698967     2.6807731    -0.3007656
C           0.7729707    -2.8253052    -0.0354977
H          -0.0520167    -3.3513926     0.4227068
C           1.6382508    -1.9360017     0.5697513
H           1.7041699    -1.5662904     1.5831460
N           2.5057555    -1.5094219    -0.3921456
N           2.2626530    -2.0920053    -1.5961255
C           1.2112183    -2.8807762    -1.3770292
H           0.8039727    -3.4603521    -2.1957416
22
435_C10H10N2_10-9-18-16 (-75,) energy =    -496.5675530
C           5.7538970     1.0986897     0.1143031
H           6.5937415     1.7761377     0.2429031
C           5.9630077    -0.2804840     0.1670512
H           6.9652628    -0.6657302     0.3378860
C           4.9104063    -1.1895747     0.0095812
C           5.1450869    -2.6785150     0.0690480
H           6.1878959    -2.8974149     0.3168037
H           4.9043424    -3.1517788    -0.8882612
H           4.5069518    -3.1524998     0.8243857
C           3.6268199    -0.6576069    -0.2067281
C           3.4086794     0.7188024    -0.2757093
H           2.4039688     1.0832120    -0.4679628
C           4.4731755     1.6037235    -0.1060972
H           4.3025633     2.6752187    -0.1566773
C           0.7036913    -2.7559250    -0.0473235
H          -0.1857861    -3.1950191     0.3807681
C           1.5189257    -1.7966518     0.5184373
H           1.4788166    -1.2797163     1.4665662
N           2.5107249    -1.5371629    -0.3821863
N           2.3944617    -2.2959922    -1.5037365
C           1.2984633    -3.0251396    -1.3000879
H           0.9730659    -3.7180850    -2.0655460
22
435_C10H10N2_10-9-18-16 (-60,) energy =    -496.5684101
C           6.0647838     0.8112856    -0.2991740
H           6.9206098     1.4781993    -0.2403881
C           5.7202033     0.0263103     0.8021108
H           6.3095332     0.0926844     1.7133760
C           4.6231674    -0.8432326     0.7764537
C           4.2582123    -1.6648231     1.9881721
H           4.8642522    -1.3685228     2.8496486
H           4.4074246    -2.7326495     1.8022653
H           3.2016952    -1.5378076     2.2513803
C           3.8793688    -0.9035339    -0.4165335
C           4.2221378    -0.1309092    -1.5284511
H           3.6352801    -0.2266502    -2.4371768
C           5.3111120     0.7374030    -1.4695842
H           5.5734725     1.3381507    -2.3356485
C           0.7014183    -2.5534370    -0.7804697
H          -0.3619260    -2.6407398    -0.9502234
C           1.4563752    -1.3987827    -0.7791608
H           1.1929967    -0.3615969    -0.9284532
N           2.7452501    -1.7668109    -0.5185649
N           2.8666750    -3.1088722    -0.3415080
C           1.6319015    -3.5799580    -0.5025992
H           1.4553001    -4.6445238    -0.4164712
22
435_C10H10N2_10-9-18-16 (-45,) energy =    -496.5687732
C           6.0613639     0.8116879    -0.2963105
H           6.9188279     1.4774154    -0.2514420
C           5.7566711    -0.0041728     0.7934911
H           6.3777306     0.0402481     1.6848130
C           4.6589844    -0.8740241     0.7903385
C           4.3473542    -1.7087797     2.0085702
H           4.9515506    -1.3779732     2.8590652
H           4.5438117    -2.7693771     1.8274809
H           3.2902527    -1.6329916     2.2857600
C           3.8716195    -0.9083887    -0.3773501
C           4.1721228    -0.0985411    -1.4771545
H           3.5581581    -0.1713132    -2.3697552
C           5.2613301     0.7692844    -1.4367428
H           5.4878602     1.3936028    -2.2962589
C           0.7134595    -2.5456723    -0.9059119
H          -0.3232695    -2.6393572    -1.1948437
C           1.4879761    -1.4054834    -0.9308758
H           1.2633285    -0.3872132    -1.2126766
N           2.7248840    -1.7523828    -0.4638046
N           2.7932568    -3.0720601    -0.1426974
C           1.5786398    -3.5458994    -0.4072040
H           1.3683012    -4.5931204    -0.2313525
22
435_C10H10N2_10-9-18-16 (-30,) energy =    -496.5681049
C           6.0273003     0.8160272    -0.3101607
H           6.8873626     1.4789348    -0.2776256
C           5.7568924    -0.0284368     0.7658219
H           6.4070842    -0.0071853     1.6369724
C           4.6581262    -0.8976117     0.7825499
C           4.3983531    -1.7434001     2.0062508
H           5.0290736    -1.4055054     2.8347109
H           4.6017975    -2.8007214     1.8161746
H           3.3514501    -1.6849927     2.3212352
C           3.8309503    -0.9083808    -0.3605303
C           4.0934515    -0.0600158    -1.4430718
H           3.4569357    -0.1064643    -2.3208363
C           5.1848707     0.8044512    -1.4197375
H           5.3785045     1.4510742    -2.2708009
C           0.7166926    -2.5788199    -1.0231101
H          -0.2820614    -2.7040055    -1.4153844
C           1.4984203    -1.4461269    -1.0774530
H           1.3052918    -0.4635728    -1.4809992
N           2.6680994    -1.7309516    -0.4259437
N           2.6879308    -3.0153714     0.0261298
C           1.5094689    -3.5186829    -0.3255618
H           1.2711652    -4.5422145    -0.0658808
22
435_C10H10N2_10-9-18-16 (-15,) energy =    -496.5661493
C           6.0239829     0.8190497    -0.3009195
H           6.8911803     1.4726157    -0.2725164
C           5.7742297    -0.0579076     0.7523771
H           6.4486201    -0.0707439     1.6050330
C           4.6685482    -0.9196219     0.7781844
C           4.4557081    -1.7828413     2.0001506
H           5.1313040    -1.4614389     2.7995860
H           4.6377472    -2.8396530     1.7880902
H           3.4270201    -1.7202490     2.3670337
C           3.8078233    -0.8947200    -0.3431045
C           4.0457872    -0.0018562    -1.3975377
H           3.3914544    -0.0053637    -2.2620933
C           5.1458189     0.8503442    -1.3812187
H           5.3150286     1.5236487    -2.2166706
C           0.7443383    -2.6193317    -1.1077118
H          -0.2067564    -2.7926581    -1.5898296
C           1.5395303    -1.5016469    -1.2156241
H           1.3881178    -0.5786500    -1.7530539
N           2.6251758    -1.6921770    -0.3999797
N           2.5802451    -2.9169681     0.1984676
C           1.4440058    -3.4634974    -0.2155476
H           1.1675351    -4.4473480     0.1414518
22
435_C10H10N2_10-9-18-16 (0,) energy =    -496.5639156
C           5.9730393     0.8928553    -0.2319120
H           6.8254529     1.5638971    -0.1792894
C           5.7582798    -0.0488214     0.7693853
H           6.4541173    -0.1028725     1.6026492
C           4.6787840    -0.9466629     0.7662491
C           4.5799833    -1.9125996     1.9267630
H           5.4149437    -1.7382137     2.6134785
H           4.6080109    -2.9540213     1.5967198
H           3.6427092    -1.7978513     2.4770010
C           3.7791197    -0.8660010    -0.3255729
C           3.9958913     0.0849819    -1.3363981
H           3.3146889     0.1542253    -2.1751869
C           5.0779179     0.9565223    -1.2958754
H           5.2123776     1.6784386    -2.0963407
C           0.7925741    -2.7066080    -1.1803328
H          -0.0719470    -2.9816085    -1.7668837
C           1.7084956    -1.7211104    -1.4664907
H           1.7534596    -1.0430808    -2.3021386
N           2.6377554    -1.7171814    -0.4561186
N           2.3481543    -2.6711519     0.4714534
C           1.2429427    -3.2625663     0.0368615
H           0.8097088    -4.0678445     0.6160047
22
435_C10H10N2_10-9-18-16 (15,) energy =    -496.5661493
C           5.8993118     0.9684090    -0.1870902
H           6.7308784     1.6646440    -0.1259689
C           5.7479978    -0.0264897     0.7763162
H           6.4765991    -0.1045440     1.5794631
C           4.7015966    -0.9592076     0.7478832
C           4.6689127    -2.0382451     1.8053510
H           5.6136001    -2.0393240     2.3588801
H           4.5197368    -3.0300665     1.3686229
H           3.8469170    -1.8913177     2.5108414
C           3.7593816    -0.8366012    -0.2989903
C           3.9171733     0.1523618    -1.2801666
H           3.1776596     0.2509209    -2.0669460
C           4.9779374     1.0516032    -1.2279378
H           5.0704476     1.8168560    -1.9933028
C           0.8789385    -2.7805921    -1.2305803
H           0.1133608    -3.1762560    -1.8820415
C           1.9464065    -1.9891085    -1.5873065
H           2.2637897    -1.6278037    -2.5529187
N           2.6839498    -1.7625037    -0.4537818
N           2.1032085    -2.3452321     0.6340824
C           1.0303935    -2.9678242     0.1623015
H           0.4015501    -3.5294844     0.8412262
22
435_C10H10N2_10-9-18-16 (30,) energy =    -496.5681051
C           5.8970414     0.9716297    -0.1784933
H           6.7354738     1.6606852    -0.1289814
C           5.7757212    -0.0479106     0.7647908
H           6.5320879    -0.1509430     1.5390003
C           4.7208245    -0.9697690     0.7448651
C           4.6853832    -2.0803174     1.7674432
H           5.6424039    -2.1317775     2.2964055
H           4.4946078    -3.0519002     1.3002997
H           3.8859147    -1.9302169     2.4980591
C           3.7509737    -0.8135514    -0.2680256
C           3.8683592     0.2050474    -1.2215430
H           3.0952289     0.3195981    -1.9744855
C           4.9393860     1.0941275    -1.1829152
H           5.0118544     1.8831147    -1.9259924
C           0.9434782    -2.8556337    -1.2035798
H           0.2427987    -3.3410198    -1.8672873
C           2.0467021    -2.1100813    -1.5557914
H           2.4643988    -1.8640657    -2.5204525
N           2.6591631    -1.7218521    -0.3947940
N           1.9802752    -2.1635996     0.6999798
C           0.9555254    -2.8532187     0.2100309
H           0.2591001    -3.3244423     0.8917774
22
435_C10H10N2_10-9-18-16 (45,) energy =    -496.5687729
C           5.9021382     0.9801096    -0.1717632
H           6.7494908     1.6583856    -0.1229097
C           5.7967559    -0.0681492     0.7426291
H           6.5715682    -0.2022754     1.4935153
C           4.7294814    -0.9747712     0.7184704
C           4.6796775    -2.1158972     1.7050537
H           5.6372181    -2.2071618     2.2272199
H           4.4661180    -3.0673775     1.2061598
H           3.8872130    -1.9704693     2.4448294
C           3.7423014    -0.7767847    -0.2668322
C           3.8361247     0.2743266    -1.1844683
H           3.0427123     0.4109940    -1.9130408
C           4.9194145     1.1495892    -1.1454503
H           4.9831327     1.9638988    -1.8614843
C           1.0106836    -2.9330903    -1.1726818
H           0.3735282    -3.5120600    -1.8252916
C           2.1342506    -2.2152807    -1.5232254
H           2.6328218    -2.0733578    -2.4708876
N           2.6277149    -1.6602035    -0.3757509
N           1.8699389    -1.9785871     0.7077568
C           0.8986481    -2.7483018     0.2241813
H           0.1490273    -3.1422090     0.8985429
22
435_C10H10N2_10-9-18-16 (60,) energy =    -496.5684094
C           5.9011671     0.9811522    -0.1725728
H           6.7575583     1.6477789    -0.1190481
C           5.8075083    -0.0995164     0.7056364
H           6.5972296    -0.2682847     1.4336168
C           4.7272421    -0.9895036     0.6716615
C           4.6605888    -2.1629170     1.6177865
H           5.5979499    -2.2613331     2.1735835
H           4.4812430    -3.0998937     1.0778570
H           3.8378737    -2.0510945     2.3302825
C           3.7242499    -0.7448161    -0.2846221
C           3.8019419     0.3404913    -1.1603934
H           2.9929850     0.5069697    -1.8655383
C           4.8970021     1.2019094    -1.1138655
H           4.9549451     2.0434879    -1.7981166
C           1.0678398    -3.0283810    -1.1104588
H           0.4904983    -3.7044231    -1.7242754
C           2.2062938    -2.3373852    -1.4705333
H           2.7728355    -2.3047356    -2.3899574
N           2.5903327    -1.6088742    -0.3812723
N           1.7606985    -1.7997750     0.6780563
C           0.8419018    -2.6545859     0.2333608
H           0.0463461    -2.9701780     0.8962280
22
435_C10H10N2_10-9-18-16 (75,) energy =    -496.5675530
C           5.8901706     0.9921265    -0.1691156
H           6.7527000     1.6500574    -0.1060055
C           5.8090261    -0.1243920     0.6648114
H           6.6110173    -0.3273416     1.3703151
C           4.7182603    -1.0001986     0.6157038
C           4.6390563    -2.2051009     1.5198558
H           5.5518228    -2.3046641     2.1145785
H           4.5039061    -3.1278018     0.9429943
H           3.7835302    -2.1301480     2.1987062
C           3.7003511    -0.7099349    -0.3100250
C           3.7642038     0.4111585    -1.1382253
H           2.9432961     0.6079727    -1.8212860
C           4.8666580     1.2630764    -1.0762460
H           4.9176093     2.1339802    -1.7233161
C           1.1144837    -3.1116425    -1.0298099
H           0.5953146    -3.8819564    -1.5814582
C           2.2766500    -2.4614618    -1.3924852
H           2.9179535    -2.5528118    -2.2574502
N           2.5554921    -1.5648353    -0.4023194
N           1.6407593    -1.6109490     0.6018478
C           0.7690917    -2.5411684     0.2155479
H          -0.0806142    -2.7663359     0.8474363
22
435_C10H10N2_10-9-18-16 (90,) energy =    -496.5667047
C           5.8945025     1.0045862    -0.1362495
H           6.7592596     1.6583998    -0.0611603
C           5.8330270    -0.1533964     0.6406865
H           6.6498545    -0.3901709     1.3180527
C           4.7368160    -1.0214277     0.5746183
C           4.6626218    -2.2631347     1.4285388
H           5.5248116    -2.3268869     2.0986885
H           4.6413579    -3.1724015     0.8157259
H           3.7495846    -2.2666109     2.0332785
C           3.6992614    -0.6852005    -0.3118836
C           3.7435569     0.4766446    -1.0819693
H           2.9083386     0.7049636    -1.7370326
C           4.8474005     1.3251097    -0.9997203
H           4.8842932     2.2293049    -1.6003811
C           1.1615127    -3.1608053    -0.9580818
H           0.6930296    -4.0054243    -1.4422991
C           2.3721588    -2.5788495    -1.2767545
H           3.1053798    -2.8041477    -2.0380886
N           2.5512360    -1.5377709    -0.4142731
N           1.5239360    -1.4211739     0.4684155
C           0.6842071    -2.3994752     0.1315986
H          -0.2382518    -2.5199207     0.6853209
22
435_C10H10N2_10-9-18-16 (105,) energy =    -496.5665429
C           5.8567878     1.0247108    -0.1873722
H           6.7141242     1.6912931    -0.1493554
C           5.8709259    -0.1633866     0.5431685
H           6.7376228    -0.4102836     1.1515307
C           4.7843327    -1.0475278     0.5267876
C           4.8017295    -2.3159472     1.3461764
H           5.6196817    -2.2935300     2.0724156
H           4.9386849    -3.2069845     0.7210758
H           3.8606141    -2.4486145     1.8897594
C           3.6783451    -0.6961815    -0.2655058
C           3.6513180     0.4928366    -0.9960879
H           2.7682870     0.7263297    -1.5823343
C           4.7414204     1.3596901    -0.9559343
H           4.7196865     2.2863428    -1.5221779
C           1.1521524    -3.1926378    -0.8700995
H           0.7195885    -4.0954359    -1.2765523
C           2.4476212    -2.7429036    -1.0245345
H           3.2936982    -3.1476730    -1.5612561
N           2.5444931    -1.5674339    -0.3391526
N           1.3670060    -1.2163015     0.2435950
C           0.5315142    -2.2038175    -0.0744354
H          -0.4900606    -2.1690538     0.2821572
22
435_C10H10N2_10-9-18-16 (120,) energy =    -496.5673548
C           5.8263758     1.0362874    -0.2150034
H           6.6821004     1.7055070    -0.1935163
C           5.8790345    -0.1792996     0.4643879
H           6.7747694    -0.4448011     1.0208435
C           4.7964835    -1.0700802     0.4713353
C           4.8808565    -2.3601358     1.2538360
H           5.6476231    -2.2834476     2.0308339
H           5.1496149    -3.2136153     0.6179781
H           3.9281741    -2.6035404     1.7340208
C           3.6494122    -0.6959024    -0.2510136
C           3.5840628     0.5237711    -0.9311687
H           2.6711925     0.7746095    -1.4604875
C           4.6698303     1.3942266    -0.9096179
H           4.6140626     2.3422598    -1.4369001
C           1.1267354    -3.2067991    -0.7935128
H           0.7127701    -4.1536799    -1.1086937
C           2.4530251    -2.8301450    -0.8060771
H           3.3441577    -3.3468799    -1.1304615
N           2.5115867    -1.5572059    -0.3137879
N           1.2768001    -1.0749118    -0.0066385
C           0.4463626    -2.0760408    -0.2874269
H          -0.6143504    -1.9503063    -0.1115490
22
435_C10H10N2_10-9-18-16 (135,) energy =    -496.5676797
C           5.8080035     1.0565982    -0.1917209
H           6.6602017     1.7295205    -0.1557181
C           5.8751450    -0.1840594     0.4374777
H           6.7785301    -0.4648741     0.9737782
C           4.7999012    -1.0845896     0.4274175
C           4.9205395    -2.3894733     1.1817008
H           5.6753887    -2.2993187     1.9688668
H           5.2325365    -3.2188818     0.5333079
H           3.9746627    -2.6805248     1.6484747
C           3.6403756    -0.6950876    -0.2701586
C           3.5579475     0.5565629    -0.8917282
H           2.6354837     0.8227134    -1.3948508
C           4.6370040     1.4329122    -0.8512129
H           4.5637323     2.4015532    -1.3373825
C           1.1033987    -3.2232360    -0.6856258
H           0.6891465    -4.2000748    -0.8891032
C           2.4364514    -2.8759979    -0.6377886
H           3.3303258    -3.4548169    -0.8107755
N           2.4941197    -1.5407612    -0.3493005
N           1.2513716    -0.9999084    -0.2210435
C           0.4177039    -2.0166974    -0.4190336
H          -0.6495382    -1.8467465    -0.3571286
22
435_C10H10N2_10-9-18-16 (150,) energy =    -496.5668964
C           5.7973027     1.0752300    -0.1595456
H           6.6420171     1.7558173    -0.1008801
C           5.8783493    -0.1872598     0.4205682
H           6.7860481    -0.4777921     0.9441413
C           4.8155083    -1.1027407     0.3824019
C           4.9738941    -2.4192291     1.1104793
H           5.7675222    -2.3356768     1.8589716
H           5.2557356    -3.2410013     0.4387089
H           4.0554131    -2.7180838     1.6252600
C           3.6476590    -0.7065956    -0.3020012
C           3.5491861     0.5737968    -0.8643182
H           2.6217619     0.8500027    -1.3508697
C           4.6168612     1.4607403    -0.7954747
H           4.5254794     2.4471484    -1.2412566
C           1.0771917    -3.2297627    -0.5886972
H           0.6491017    -4.2177889    -0.6763165
C           2.4133040    -2.9082044    -0.4890856
H           3.2917217    -3.5310957    -0.5191926
N           2.4970647    -1.5442589    -0.4091196
N           1.2627008    -0.9680524    -0.4486885
C           0.4131926    -1.9833721    -0.5574392
H          -0.6495058    -1.7826013    -0.6027155
22
435_C10H10N2_10-9-18-16 (165,) energy =    -496.5651345
C           5.7721396     1.0989996    -0.1223609
H           6.6068208     1.7899422    -0.0457025
C           5.8735487    -0.1812160     0.4117297
H           6.7899285    -0.4764183     0.9169974
C           4.8277705    -1.1158646     0.3492857
C           5.0406005    -2.4488270     1.0332194
H           5.9192158    -2.3930044     1.6822856
H           5.2226665    -3.2654878     0.3222079
H           4.1866612    -2.7359573     1.6558443
C           3.6446125    -0.7190940    -0.3131278
C           3.5276441     0.5819501    -0.8271486
H           2.5952186     0.8620518    -1.2994791
C           4.5810228     1.4829808    -0.7369668
H           4.4669794     2.4817122    -1.1489730
C           1.0285180    -3.2198286    -0.4972678
H           0.5737522    -4.1994483    -0.4718608
C           2.3598556    -2.9182988    -0.3155540
H           3.2020490    -3.5684981    -0.1621532
N           2.4956905    -1.5603913    -0.4494907
N           1.2887747    -0.9731685    -0.6951593
C           0.4139930    -1.9698815    -0.7273082
H          -0.6304128    -1.7522302    -0.9105637
22
435_C10H10N2_10-9-18-16 (180,) energy =    -496.5638457
C           5.7382565     1.1101618    -0.0800097
H           6.5702221     1.8043161    -0.0037337
C           5.8618249    -0.1868580     0.4053786
H           6.7991691    -0.4963322     0.8608869
C           4.8246623    -1.1311163     0.3370954
C           5.1102301    -2.5034081     0.9078991
H           6.1312997    -2.5337438     1.2981078
H           5.0301540    -3.2961111     0.1542282
H           4.4409856    -2.7601871     1.7379068
C           3.6093013    -0.7183105    -0.2575818
C           3.4830779     0.5918734    -0.7487794
H           2.5420798     0.8780067    -1.1980468
C           4.5329968     1.4969861    -0.6624219
H           4.4025681     2.5027279    -1.0520409
C           0.9543323    -3.1917979    -0.4123770
H           0.4583313    -4.1418689    -0.2763569
C           2.2397860    -2.8681898    -0.0417094
H           2.9837954    -3.4716334     0.4413479
N           2.4588292    -1.5616031    -0.4024551
N           1.3479441    -1.0353996    -0.9963060
C           0.4514573    -2.0114636    -0.9995576
H          -0.5267710    -1.8297663    -1.4258852
