20
103_C9H8N2S_16-0-8-9 (-165,) energy =    -855.4568966
N           2.2926716    -0.0441521    -0.8872651
H           1.7758362     0.7992548    -0.6816088
C           5.8335215    -0.3343449     1.3828861
H           6.7431148    -0.3909450     1.9736457
C           5.5408416    -1.3162613     0.4359856
H           6.2269943    -2.1458150     0.2860604
C           4.3787121    -1.2598957    -0.3339714
H           4.1512888    -2.0264699    -1.0618608
C           3.4838458    -0.1949505    -0.1497090
C           3.7716561     0.7918515     0.8085219
H           3.0761230     1.6156513     0.9596660
C           4.9387064     0.7226537     1.5627610
H           5.1441787     1.4966385     2.2974150
C           1.1338854    -2.7825251    -2.8057531
H           1.3617691    -3.7790529    -3.1673602
N           2.0620039    -2.1430401    -2.0102225
C           1.6317938    -0.9631311    -1.6623633
S           0.0257532    -0.5399638    -2.3067614
C          -0.0111953    -2.1068253    -3.0842519
H          -0.8581062    -2.4126672    -3.6811923
20
103_C9H8N2S_16-0-8-9 (-150,) energy =    -855.4559430
N           2.3959579     0.0411480    -1.0493082
H           1.8910237     0.8961662    -0.8601077
C           5.7851702    -0.3747111     1.4264820
H           6.6572369    -0.4657921     2.0674640
C           5.5745144    -1.2803353     0.3856146
H           6.2866264    -2.0830195     0.2127058
C           4.4627347    -1.1762337    -0.4500881
H           4.2953557    -1.8864216    -1.2483354
C           3.5358012    -0.1456600    -0.2359067
C           3.7362676     0.7579643     0.8196685
H           3.0102887     1.5492555     0.9978218
C           4.8580876     0.6477867     1.6367181
H           4.9994778     1.3588389     2.4462653
C           1.0861192    -2.8106651    -2.6869937
H           1.2699217    -3.8429727    -2.9633448
N           2.0555528    -2.1382960    -1.9716473
C           1.6744276    -0.9188916    -1.7189853
S           0.0711691    -0.4932825    -2.3655082
C          -0.0404866    -2.1195131    -3.0012177
H          -0.9113765    -2.4441315    -3.5520217
20
103_C9H8N2S_16-0-8-9 (-135,) energy =    -855.4544550
N           3.0352605    -1.9298863    -1.1717071
H           3.5465352    -2.5378181    -1.7980382
C           5.5871788     0.2220158     1.4102924
H           6.2526368     0.7661802     2.0742846
C           4.2178647     0.1620385     1.6767137
H           3.8131304     0.6617164     2.5528304
C           3.3526152    -0.5383586     0.8373253
H           2.2901075    -0.5763989     1.0388190
C           3.8645638    -1.1845833    -0.2957921
C           5.2355821    -1.1083332    -0.5785960
H           5.6301957    -1.5920419    -1.4700145
C           6.0919940    -0.4204799     0.2787661
H           7.1535761    -0.3761455     0.0507648
C          -0.1203453    -0.4791596    -1.8617111
H          -0.8460312     0.2637829    -1.5496977
N           1.0522376    -0.5967577    -1.1439560
C           1.8090763    -1.5235932    -1.6550949
S           1.1200819    -2.3502307    -3.0715107
C          -0.2836103    -1.3163616    -2.9193302
H          -1.1132865    -1.3978863    -3.6065486
20
103_C9H8N2S_16-0-8-9 (-120,) energy =    -855.4526007
N           2.9781498    -2.0494555    -1.0470369
H           3.4732799    -2.7116951    -1.6308503
C           5.5592583     0.2652076     1.3638426
H           6.2276712     0.8527080     1.9868547
C           4.2275518     0.0775060     1.7420185
H           3.8567982     0.5200791     2.6626072
C           3.3645320    -0.6826869     0.9549810
H           2.3305808    -0.8292917     1.2432658
C           3.8351145    -1.2548733    -0.2324889
C           5.1611770    -1.0462524    -0.6288898
H           5.5167284    -1.4692791    -1.5659406
C           6.0234974    -0.3029129     0.1770526
H           7.0542156    -0.1561236    -0.1342817
C           0.0030582    -0.3619621    -1.9645054
H          -0.6448157     0.4800168    -1.7467488
N           1.1489850    -0.5239048    -1.2127325
C           1.8099300    -1.5707259    -1.6104868
S           1.0572081    -2.4646123    -2.9499554
C          -0.2324247    -1.2810514    -2.9372398
H          -1.0548977    -1.3448685    -3.6349672
20
103_C9H8N2S_16-0-8-9 (-105,) energy =    -855.4507113
N           2.9082234    -2.1294495    -0.9230759
H           3.3772033    -2.8612098    -1.4429700
C           5.5309497     0.3000732     1.3302885
H           6.2063156     0.9180632     1.9153610
C           4.2617101    -0.0124254     1.8233144
H           3.9466756     0.3626074     2.7932427
C           3.3949589    -0.8141874     1.0826665
H           2.4096057    -1.0673870     1.4584671
C           3.7950569    -1.2994637    -0.1656083
C           5.0536294    -0.9651399    -0.6748803
H           5.3485217    -1.3217625    -1.6589595
C           5.9258806    -0.1810498     0.0813431
H           6.9073668     0.0652173    -0.3146870
C           0.1418523    -0.2624957    -2.1059311
H          -0.4164986     0.6612485    -2.0002886
N           1.2567094    -0.4526818    -1.3147911
C           1.8074203    -1.6012038    -1.5749354
S           0.9821425    -2.5610344    -2.8226175
C          -0.1761778    -1.2570312    -2.9756230
H          -0.9899976    -1.3138750    -3.6840884
20
103_C9H8N2S_16-0-8-9 (-90,) energy =    -855.4493641
N           2.8618114    -2.1171939    -1.0686468
H           2.6662872    -3.0216848    -0.6566505
C           5.4821669     0.2342804     1.2740199
H           6.1678001     0.8244068     1.8758689
C           4.3644273    -0.3569048     1.8651989
H           4.1751078    -0.2276940     2.9273717
C           3.4801146    -1.1103131     1.0919731
H           2.6002756    -1.5613213     1.5438806
C           3.7204922    -1.2820912    -0.2740960
C           4.8467454    -0.7041610    -0.8641186
H           5.0244846    -0.8596336    -1.9232972
C           5.7186517     0.0626469    -0.0917229
H           6.5905604     0.5161687    -0.5550754
C           0.5102702    -0.1070694    -2.7870714
H           0.2571208     0.9048865    -3.0840113
N           1.6462941    -0.3063100    -2.0287112
C           1.7952009    -1.5694440    -1.7582720
S           0.5377704    -2.6320652    -2.4287101
C          -0.2227836    -1.2064643    -3.1041729
H          -1.1395604    -1.2788143    -3.6714370
20
103_C9H8N2S_16-0-8-9 (-75,) energy =    -855.4509855
N           2.7539653    -2.1003537    -0.9373354
H           2.4683797    -2.9349523    -0.4396821
C           5.5194514     0.2077575     1.2706212
H           6.2446698     0.7839321     1.8384103
C           4.5061034    -0.4887011     1.9296467
H           4.4359694    -0.4570594     3.0135514
C           3.5698324    -1.2221752     1.1992331
H           2.7699519    -1.7530400     1.7103293
C           3.6529891    -1.2704900    -0.1955432
C           4.6821184    -0.5926729    -0.8569297
H           4.7450455    -0.6507455    -1.9380921
C           5.5998891     0.1565592    -0.1234660
H           6.3917255     0.6896242    -0.6426217
C           0.6288382    -0.1413655    -2.9830553
H           0.4701642     0.8410942    -3.4140728
N           1.7246895    -0.3333853    -2.1662728
C           1.7573932    -1.5579186    -1.7307143
S           0.4328015    -2.5925125    -2.3074059
C          -0.1862674    -1.2097980    -3.1849937
H          -1.0911193    -1.2804884    -3.7712535
20
103_C9H8N2S_16-0-8-9 (-60,) energy =    -855.4529561
N           2.6554501    -2.0494329    -0.8141485
H           2.3151222    -2.8302101    -0.2672714
C           5.5651148     0.1849351     1.2739637
H           6.3262053     0.7412566     1.8136538
C           4.6463135    -0.6029613     1.9676000
H           4.6849415    -0.6642285     3.0518451
C           3.6635123    -1.3098221     1.2746186
H           2.9390344    -1.9128686     1.8179685
C           3.6002920    -1.2402637    -0.1219707
C           4.5368589    -0.4702207    -0.8229511
H           4.4876999    -0.4273972    -1.9042705
C           5.5009720     0.2495050    -0.1202725
H           6.2175691     0.8540903    -0.6696856
C           0.7387540    -0.2269499    -3.1686273
H           0.6685911     0.6957789    -3.7340398
N           1.8037942    -0.3926810    -2.3068553
C           1.7282064    -1.5436415    -1.7061414
S           0.3303106    -2.5381013    -2.1709899
C          -0.1574676    -1.2454309    -3.2457026
H          -1.0533358    -1.3259082    -3.8442800
20
103_C9H8N2S_16-0-8-9 (-45,) energy =    -855.4547667
N           2.5422304    -1.9592830    -0.7038205
H           2.1588737    -2.6970359    -0.1276720
C           5.6181914     0.1418466     1.2767124
H           6.4188277     0.6640892     1.7924934
C           4.7676432    -0.7132801     1.9787899
H           4.8992401    -0.8623537     3.0471336
C           3.7356434    -1.3760266     1.3175730
H           3.0684305    -2.0334530     1.8718163
C           3.5468434    -1.1950630    -0.0599427
C           4.4124660    -0.3537042    -0.7730534
H           4.2650400    -0.2147823    -1.8360361
C           5.4299908     0.3165803    -0.0958785
H           6.0899098     0.9749223    -0.6546546
C           0.8234303    -0.3074699    -3.3217421
H           0.8331849     0.5414166    -3.9964350
N           1.8563930    -0.4413004    -2.4168408
C           1.6857328    -1.5025668    -1.6831959
S           0.2265078    -2.4450526    -2.0657337
C          -0.1419098    -1.2634662    -3.3027912
H          -1.0263928    -1.3558629    -3.9163216
20
103_C9H8N2S_16-0-8-9 (-30,) energy =    -855.4561215
N           2.4325696    -1.8487272    -0.6051552
H           2.0272659    -2.5592455    -0.0112821
C           5.6661787     0.1086317     1.2645708
H           6.5040632     0.5949405     1.7555807
C           4.8695741    -0.8008108     1.9627870
H           5.0807460    -1.0288121     3.0041207
C           3.7922769    -1.4188034     1.3339439
H           3.1713426    -2.1216783     1.8866205
C           3.4975843    -1.1376669    -0.0097714
C           4.3042256    -0.2362512    -0.7203189
H           4.0750590    -0.0169749    -1.7542616
C           5.3724877     0.3831047    -0.0719368
H           5.9867754     1.0859794    -0.6286723
C           0.8859065    -0.3919611    -3.4363234
H           0.9568543     0.3834798    -4.1909551
N           1.8830884    -0.4799931    -2.4869044
C           1.6415990    -1.4558025    -1.6587251
S           0.1491002    -2.3651954    -1.9982194
C          -0.1232562    -1.2980761    -3.3577208
H          -0.9908047    -1.4128482    -3.9912682
20
103_C9H8N2S_16-0-8-9 (-15,) energy =    -855.4569456
N           2.3242243    -1.7241716    -0.5147948
H           1.9073710    -2.4219056     0.0852804
C           5.7113991     0.0661851     1.2444524
H           6.5852982     0.5121508     1.7102464
C           4.9495931    -0.8809422     1.9321436
H           5.2245893    -1.1792472     2.9403017
C           3.8286112    -1.4491536     1.3353752
H           3.2383724    -2.1843407     1.8797902
C           3.4504846    -1.0790378     0.0334350
C           4.2167943    -0.1336148    -0.6651090
H           3.9243774     0.1532990    -1.6657790
C           5.3342941     0.4299391    -0.0485720
H           5.9184836     1.1643192    -0.5970911
C           0.9419413    -0.4608265    -3.5177316
H           1.0626861     0.2528755    -4.3250757
N           1.8957006    -0.4948089    -2.5215013
C           1.5990859    -1.4015577    -1.6336810
S           0.0991448    -2.3027853    -1.9679563
C          -0.0908303    -1.3371933    -3.4145111
H          -0.9340619    -1.4818010    -4.0741997
20
103_C9H8N2S_16-0-8-9 (0,) energy =    -855.4572153
N           2.2239690    -1.5933798    -0.4266274
H           1.8042138    -2.2886106     0.1740099
C           5.7532414     0.0211495     1.2180061
H           6.6603578     0.4255166     1.6574847
C           5.0167719    -0.9567258     1.8904528
H           5.3454514    -1.3214323     2.8599725
C           3.8552036    -1.4738724     1.3265088
H           3.2872533    -2.2358401     1.8577283
C           3.4080847    -1.0193669     0.0736011
C           4.1440042    -0.0370516    -0.6066742
H           3.8005085     0.3126915    -1.5704043
C           5.3066560     0.4698310    -0.0250964
H           5.8689624     1.2303800    -0.5607092
C           0.9978995    -0.5310949    -3.5711365
H           1.1625749     0.1256328    -4.4180862
N           1.9058474    -0.5049946    -2.5328636
C           1.5615618    -1.3495424    -1.6015711
S           0.0656691    -2.2565442    -1.9404835
C          -0.0491985    -1.3886438    -3.4552432
H          -0.8651906    -1.5686826    -4.1399751
20
103_C9H8N2S_16-0-8-9 (15,) energy =    -855.4569456
N           2.1234319    -1.4568334    -0.3461717
H           1.7018331    -2.1482802     0.2578528
C           5.7831704    -0.0293693     1.1841924
H           6.7209325     0.3315720     1.5963488
C           5.0664108    -1.0364723     1.8340516
H           5.4417625    -1.4683859     2.7579311
C           3.8668070    -1.5000062     1.3033124
H           3.3160364    -2.2877335     1.8145918
C           3.3607256    -0.9595435     0.1088255
C           4.0728533     0.0580215    -0.5442087
H           3.6849821     0.4720073    -1.4647190
C           5.2769604     0.5062689    -0.0004083
H           5.8225649     1.2920191    -0.5165256
C           1.0530373    -0.6087440    -3.6110524
H           1.2608715    -0.0109720    -4.4915224
N           1.9134171    -0.5183810    -2.5364039
C           1.5219481    -1.2988181    -1.5688972
S           0.0331833    -2.2149266    -1.9125533
C          -0.0069145    -1.4489255    -3.4850083
H          -0.7945620    -1.6675441    -4.1913782
20
103_C9H8N2S_16-0-8-9 (30,) energy =    -855.4561215
N           2.0356845    -1.3100312    -0.2637029
H           1.6065480    -1.9885579     0.3504949
C           5.8110623    -0.0729817     1.1505691
H           6.7765033     0.2438229     1.5342340
C           5.1138244    -1.1143723     1.7658206
H           5.5321051    -1.6175795     2.6334488
C           3.8792997    -1.5233501     1.2692203
H           3.3445665    -2.3406446     1.7499831
C           3.3200547    -0.8907822     0.1473497
C           4.0094642     0.1663512    -0.4652432
H           3.5804967     0.6512261    -1.3315725
C           5.2506382     0.5558060     0.0377455
H           5.7806396     1.3705922    -0.4486219
C           1.1263706    -0.7027466    -3.6303743
H           1.3856418    -0.1782281    -4.5433197
N           1.9411529    -0.5475890    -2.5278437
C           1.4916472    -1.2461348    -1.5246590
S          -0.0024160    -2.1535671    -1.8624963
C           0.0420095    -1.5087382    -3.4883467
H          -0.7204310    -1.7636710    -4.2100748
20
103_C9H8N2S_16-0-8-9 (45,) energy =    -855.4547667
N           1.9516480    -1.1561910    -0.2049215
H           1.5017570    -1.8061998     0.4261694
C           5.8225643    -0.1148347     1.1105217
H           6.8113574     0.1565120     1.4689142
C           5.1452557    -1.2012579     1.6659712
H           5.6024441    -1.7847150     2.4606130
C           3.8804463    -1.5535358     1.1994712
H           3.3610710    -2.4082843     1.6286828
C           3.2742169    -0.8156547     0.1728457
C           3.9420490     0.2896652    -0.3730312
H           3.4729507     0.8577496    -1.1656173
C           5.2141922     0.6204567     0.0911163
H           5.7289883     1.4725187    -0.3449036
C           1.2244946    -0.8198263    -3.6537473
H           1.5534277    -0.3945630    -4.5954840
N           1.9969798    -0.6084029    -2.5302098
C           1.4654931    -1.1907396    -1.4948102
S          -0.0604373    -2.0440265    -1.8225108
C           0.0915440    -1.5529418    -3.4952112
H          -0.6506553    -1.8337810    -4.2283799
20
103_C9H8N2S_16-0-8-9 (60,) energy =    -855.4529560
N           1.8773858    -0.9968795    -0.1578649
H           1.3986802    -1.5942915     0.5042896
C           5.8317120    -0.1544983     1.0555232
H           6.8413703     0.0705318     1.3871373
C           5.1728966    -1.2890350     1.5297595
H           5.6655972    -1.9555547     2.2324906
C           3.8798377    -1.5824076     1.0965097
H           3.3725466    -2.4750225     1.4565888
C           3.2323344    -0.7340004     0.1908431
C           3.8814748     0.4191933    -0.2676962
H           3.3715519     1.0760902    -0.9619337
C           5.1811416     0.6917931     0.1540077
H           5.6833073     1.5822546    -0.2145028
C           1.3241875    -0.9846809    -3.6553550
H           1.7285735    -0.6923105    -4.6181809
N           2.0650394    -0.7204014    -2.5214586
C           1.4409663    -1.1427120    -1.4615227
S          -0.1385428    -1.8950096    -1.7751295
C           0.1263022    -1.6018620    -3.4803728
H          -0.6043842    -1.9012258    -4.2178215
20
103_C9H8N2S_16-0-8-9 (75,) energy =    -855.4509855
N           1.8207190    -0.8412581    -0.1507671
H           1.3002350    -1.3640981     0.5431401
C           5.8282197    -0.1877510     1.0168058
H           6.8514290    -0.0086070     1.3350093
C           5.1826258    -1.3741349     1.3660119
H           5.7001849    -2.1254628     1.9562728
C           3.8708558    -1.6072910     0.9500926
H           3.3713331    -2.5382608     1.2081960
C           3.1960265    -0.6457618     0.1919917
C           3.8328950     0.5545754    -0.1390129
H           3.2933497     1.2991232    -0.7141507
C           5.1503600     0.7713081     0.2596518
H           5.6442649     1.7012613    -0.0085476
C           1.4326330    -1.1897672    -3.6531515
H           1.9100426    -1.0526927    -4.6172424
N           2.1447022    -0.8724361    -2.5142251
C           1.4305556    -1.1042794    -1.4528554
S          -0.2025276    -1.7278657    -1.7717282
C           0.1706740    -1.6636628    -3.4810861
H          -0.5503822    -1.9780345    -4.2218310
20
103_C9H8N2S_16-0-8-9 (90,) energy =    -855.4493641
N           1.7902112    -0.6739329    -0.1658790
H           1.2130572    -1.0714169     0.5655401
C           5.8343575    -0.2189820     0.9837630
H           6.8678949    -0.0923111     1.2941160
C           5.1923826    -1.4436505     1.1745237
H           5.7236335    -2.2740978     1.6315554
C           3.8667276    -1.6091199     0.7710764
H           3.3658960    -2.5647546     0.9040240
C           3.1778732    -0.5433475     0.1853780
C           3.8138634     0.6873461     0.0079361
H           3.2590212     1.5074996    -0.4360462
C           5.1441197     0.8435977     0.3962832
H           5.6379881     1.8004741     0.2510805
C           1.5031794    -1.4072236    -3.6159841
H           2.0278032    -1.4292592    -4.5649820
N           2.1985679    -1.0214314    -2.4877305
C           1.4244707    -1.0573956    -1.4435571
S          -0.2468275    -1.5687454    -1.7676956
C           0.1967394    -1.7436551    -3.4528322
H          -0.5214805    -2.0793397    -4.1869837
20
103_C9H8N2S_16-0-8-9 (105,) energy =    -855.4507113
N           1.8703201    -0.7315766    -0.0495909
H           1.2577002    -0.0244661     0.3382189
C           5.9320782    -0.2188009     0.9983181
H           6.9744850    -0.0897085     1.2759221
C           5.3920739    -1.5016288     0.8781260
H           6.0138579    -2.3736561     1.0614571
C           4.0525774    -1.6737062     0.5334844
H           3.6218832    -2.6649401     0.4428489
C           3.2480793    -0.5554710     0.2966376
C           3.7924376     0.7292331     0.3879911
H           3.1693968     1.5946073     0.1746804
C           5.1282437     0.8958288     0.7559038
H           5.5422272     1.8972416     0.8370957
C           1.5563106    -2.1234470    -3.2902012
H           2.0782018    -2.6361359    -4.0908255
N           2.2653817    -1.7753094    -2.1583894
C           1.4934574    -1.1648794    -1.3089375
S          -0.1942503    -0.9761314    -1.8334211
C           0.2396324    -1.7888762    -3.3222903
H          -0.4911017    -1.9551162    -4.1006537
20
103_C9H8N2S_16-0-8-9 (120,) energy =    -855.4526007
N           1.9014594    -0.5998201    -0.1408370
H           1.3223562     0.1671164     0.1769700
C           5.9335688    -0.2180586     1.0543538
H           6.9679741    -0.1181251     1.3707332
C           5.4072562    -1.4771767     0.7555094
H           6.0333410    -2.3613887     0.8391741
C           4.0788064    -1.6173416     0.3583949
H           3.6669299    -2.5914869     0.1237568
C           3.2669661    -0.4826285     0.2476145
C           3.7981180     0.7834985     0.5194574
H           3.1726161     1.6662950     0.4060971
C           5.1224809     0.9112851     0.9382973
H           5.5220042     1.8977767     1.1575501
C           1.4894595    -2.3187877    -3.2093804
H           1.9648216    -2.9705817    -3.9341441
N           2.2143558    -1.9220772    -2.1040832
C           1.5007182    -1.1406638    -1.3484339
S          -0.1499761    -0.8385788    -1.9347376
C           0.2158860    -1.8561626    -3.3112546
H          -0.5186802    -2.0357973    -4.0829422
20
103_C9H8N2S_16-0-8-9 (135,) energy =    -855.4544550
N           1.9571403    -0.4781633    -0.2641236
H           1.4059788     0.3274580     0.0013365
C           5.9347365    -0.2257488     1.1232174
H           6.9544595    -0.1536172     1.4903648
C           5.4364024    -1.4441736     0.6577049
H           6.0703667    -2.3268631     0.6618148
C           4.1275588    -1.5534995     0.1899824
H           3.7448664    -2.4957188    -0.1797997
C           3.3027690    -0.4206914     0.1790811
C           3.8063874     0.8092709     0.6252265
H           3.1729839     1.6937574     0.5968644
C           5.1105436     0.9005053     1.1074147
H           5.4848738     1.8589474     1.4569464
C           1.3969115    -2.4771715    -3.1326885
H           1.8088612    -3.2472989    -3.7754463
N           2.1506757    -2.0390114    -2.0632008
C           1.5149415    -1.1135124    -1.4056382
S          -0.0943172    -0.7144103    -2.0500577
C           0.1757606    -1.9061974    -3.3026932
H          -0.5703560    -2.0977695    -4.0602474
20
103_C9H8N2S_16-0-8-9 (150,) energy =    -855.4559430
N           2.0243198    -0.3537378    -0.3983610
H           1.4945724     0.4752800    -0.1661712
C           5.9263587    -0.2350492     1.1983731
H           6.9264418    -0.1926512     1.6199081
C           5.4657380    -1.4013250     0.5855421
H           6.1099846    -2.2748296     0.5286419
C           4.1830936    -1.4753456     0.0427362
H           3.8328532    -2.3762464    -0.4423298
C           3.3429928    -0.3541526     0.1084874
C           3.8083313     0.8256785     0.7104997
H           3.1640066     1.7022003     0.7489999
C           5.0868303     0.8788183     1.2589611
H           5.4287747     1.7990192     1.7250690
C           1.3027388    -2.5907594    -3.0451411
H           1.6533985    -3.4487961    -3.6078332
N           2.0950278    -2.1035918    -2.0260548
C           1.5317469    -1.0743877    -1.4608335
S          -0.0509167    -0.6269534    -2.1423950
C           0.1234155    -1.9544452    -3.2687037
H          -0.6417141    -2.1684286    -4.0008226
20
103_C9H8N2S_16-0-8-9 (165,) energy =    -855.4568966
N           2.1024897    -0.2427805    -0.5611296
H           1.5810879     0.5958721    -0.3477019
C           5.9038893    -0.2608305     1.2622086
H           6.8781294    -0.2498851     1.7421019
C           5.4897887    -1.3695784     0.5235346
H           6.1454715    -2.2309651     0.4258830
C           4.2413320    -1.4033928    -0.0983747
H           3.9264292    -2.2613642    -0.6762174
C           3.3855639    -0.2976016     0.0188214
C           3.8024257     0.8240001     0.7557438
H           3.1442942     1.6868762     0.8427199
C           5.0484603     0.8373138     1.3745282
H           5.3516678     1.7133988     1.9415627
C           1.2334749    -2.6784927    -2.9765286
H           1.5379923    -3.5949850    -3.4695490
N           2.0694156    -2.1352850    -2.0229344
C           1.5575033    -1.0407038    -1.5349697
S          -0.0249918    -0.5929345    -2.2197308
C           0.0732375    -2.0186183    -3.2290306
H          -0.7169555    -2.2652237    -3.9232322
20
103_C9H8N2S_16-0-8-9 (180,) energy =    -855.4572153
N           2.1970814    -0.1393808    -0.7227182
H           1.6776349     0.7014785    -0.5143132
C           5.8762878    -0.2967783     1.3280902
H           6.8202224    -0.3201267     1.8647062
C           5.5166658    -1.3447112     0.4804184
H           6.1845810    -2.1928438     0.3537040
C           4.3087092    -1.3338041    -0.2178671
H           4.0330443    -2.1476390    -0.8741967
C           3.4366697    -0.2451620    -0.0638766
C           3.7958468     0.8127207     0.7894753
H           3.1221968     1.6591958     0.9121005
C           5.0044520     0.7841517     1.4773473
H           5.2635144     1.6118396     2.1321965
C           1.1828490    -2.7391043    -2.8983275
H           1.4490630    -3.6980118    -3.3288661
N           2.0662446    -2.1438766    -2.0217340
C           1.5954673    -1.0039171    -1.5998510
S          -0.0006904    -0.5708797    -2.2631403
C           0.0292950    -2.0718505    -3.1615626
H          -0.7901375    -2.3506057    -3.8080445
