18
234_C8H8O2_13-0-1-8 (-165,) energy =    -460.1247133
C           1.1992838    -0.5694969    -0.2749004
O           2.4241135    -0.3774334    -0.8551203
C           5.8500328     1.1347715     0.9917840
H           6.7574977     1.5193984     1.4484723
C           4.6071658     1.6500583     1.3608738
H           4.5447145     2.4388908     2.1056136
C           3.4281977     1.1705701     0.7844331
H           2.4651459     1.5667479     1.0727315
C           3.5184324     0.1530070    -0.1671236
C           4.7545693    -0.3684865    -0.5527059
H           4.7840208    -1.1512744    -1.3040797
C           5.9203551     0.1245348     0.0297786
H           6.8824351    -0.2820640    -0.2696373
C           0.3724839    -1.4773773    -1.1531362
H          -0.6647200    -1.4628760    -0.8164075
H           0.7628354    -2.4989310    -1.0809005
H           0.4379540    -1.1738569    -2.2019073
O           0.8538675    -0.1128718     0.7872761
18
234_C8H8O2_13-0-1-8 (-150,) energy =    -460.1226134
C           1.1580883    -0.4396311    -0.3596513
O           2.3853880    -0.2235621    -0.9328729
C           5.8440165     1.0580614     1.0273755
H           6.7603709     1.3790509     1.5145057
C           4.6164263     1.5937291     1.4174709
H           4.5747016     2.3364950     2.2095570
C           3.4277768     1.1971041     0.7989301
H           2.4759188     1.6125447     1.0971008
C           3.4909388     0.2367889    -0.2129090
C           4.7121863    -0.3032375    -0.6204573
H           4.7214258    -1.0388120    -1.4185488
C           5.8880325     0.1098788     0.0025855
H           6.8381640    -0.3117946    -0.3136962
C           0.4436995    -1.5477781    -1.0935874
H          -0.6025164    -1.5785264    -0.7866544
H           0.9246452    -2.5006164    -0.8441026
H           0.5202942    -1.4156036    -2.1767468
O           0.7420841     0.1369840     0.6148747
18
234_C8H8O2_13-0-1-8 (-135,) energy =    -460.1194433
C           1.1367141    -0.3023576    -0.4746829
O           2.3853871    -0.1169757    -1.0211304
C           5.8363782     0.9754220     1.0631286
H           6.7500844     1.2448209     1.5851545
C           4.6097626     1.4920571     1.4810464
H           4.5659491     2.1696896     2.3294744
C           3.4253041     1.1637315     0.8161545
H           2.4743622     1.5740243     1.1263798
C           3.4899910     0.2862145    -0.2683262
C           4.7103377    -0.2339194    -0.7041896
H           4.7211088    -0.9051669    -1.5569987
C           5.8823227     0.1143261    -0.0358609
H           6.8316275    -0.2918684    -0.3742507
C           0.5335155    -1.5874532    -0.9830646
H          -0.5259754    -1.6300421    -0.7267270
H           1.0581107    -2.4247340    -0.5076172
H           0.6707458    -1.6875458    -2.0636794
O           0.6333219     0.4348796     0.3358247
18
234_C8H8O2_13-0-1-8 (-120,) energy =    -460.1158785
C           1.1074384    -0.1986674    -0.5899505
O           2.3643387    -0.0094102    -1.1341948
C           5.7869515     0.8865879     1.0853015
H           6.6916124     1.1066332     1.6447504
C           4.5566165     1.3880407     1.5115924
H           4.5012213     2.0053055     2.4042827
C           3.3854653     1.1229805     0.7974251
H           2.4327120     1.5310489     1.1093344
C           3.4641735     0.3234069    -0.3447025
C           4.6878840    -0.1814667    -0.7884579
H           4.7103430    -0.7924827    -1.6851414
C           5.8479402     0.1056050    -0.0712313
H           6.8002849    -0.2876664    -0.4164352
C           0.6114961    -1.5945143    -0.8645523
H          -0.4368909    -1.6858999    -0.5771050
H           1.2177554    -2.2950958    -0.2777782
H           0.7435731    -1.8563737    -1.9187610
O           0.5282736     0.6402253     0.0507267
18
234_C8H8O2_13-0-1-8 (-105,) energy =    -460.1130598
C           1.1206333    -0.0852342    -0.7894803
O           2.4230879    -0.0376677    -1.2747290
C           5.7360703     0.8175749     1.1160762
H           6.6122395     1.0278107     1.7223562
C           4.4654985     1.1758077     1.5666749
H           4.3480903     1.6716802     2.5264996
C           3.3302831     0.9179771     0.7943604
H           2.3488576     1.2288057     1.1334525
C           3.4838536     0.2782910    -0.4376870
C           4.7499211    -0.0834495    -0.9045164
H           4.8342899    -0.5756554    -1.8681201
C           5.8718321     0.1917678    -0.1257479
H           6.8557858    -0.0894960    -0.4912408
C           0.6420961    -1.5041391    -0.6325748
H          -0.4087375    -1.5192051    -0.3401620
H           1.2506015    -2.0000511     0.1329831
H           0.7853919    -2.0585176    -1.5657832
O           0.4897979     0.9079770    -0.5475243
18
234_C8H8O2_13-0-1-8 (-90,) energy =    -460.1121265
C           1.1177807    -0.0367479    -0.8757182
O           2.4189443     0.0558203    -1.3715351
C           5.6846890     0.7367692     1.1335970
H           6.5474103     0.9084037     1.7704584
C           4.4054084     1.0719399     1.5767474
H           4.2665735     1.5113741     2.5608516
C           3.2892226     0.8617120     0.7635704
H           2.2999631     1.1567682     1.0981086
C           3.4680842     0.2963933    -0.5015656
C           4.7440136    -0.0427014    -0.9594251
H           4.8504438    -0.4766936    -1.9484824
C           5.8473735     0.1842988    -0.1398948
H           6.8393177    -0.0773577    -0.4982520
C           0.7515766    -1.4472165    -0.4935414
H          -0.2708603    -1.4823789    -0.1150362
H           1.4484461    -1.8199572     0.2653741
H           0.8495427    -2.0985679    -1.3690304
O           0.3921863     0.9182549    -0.8470529
18
234_C8H8O2_13-0-1-8 (-75,) energy =    -460.1128418
C           1.0827510     0.0002226    -0.9418000
O           2.3743872     0.2015019    -1.4291612
C           5.6269321     0.6517643     1.1425275
H           6.4854543     0.7700396     1.7969977
C           4.3532203     1.0142410     1.5810798
H           4.2155219     1.4218979     2.5788573
C           3.2445038     0.8730267     0.7435245
H           2.2587402     1.1895906     1.0714750
C           3.4229709     0.3482791    -0.5392006
C           4.6930875    -0.0177691    -0.9913437
H           4.7995220    -0.4173586    -1.9947875
C           5.7910689     0.1418162    -0.1484176
H           6.7794284    -0.1394485    -0.5016831
C           0.8549582    -1.3951785    -0.4144363
H          -0.1352866    -1.4665345     0.0374775
H           1.6247483    -1.6735310     0.3115316
H           0.9259682    -2.0988099    -1.2521784
O           0.2440642     0.8472559    -1.0763840
18
234_C8H8O2_13-0-1-8 (-60,) energy =    -460.1143200
C           1.0288372     0.0394277    -0.9303283
O           2.2968774     0.3818445    -1.3865894
C           5.6071607     0.5560885     1.1437323
H           6.4795295     0.6088343     1.7884167
C           4.3601710     0.9688949     1.6153901
H           4.2582511     1.3498972     2.6278409
C           3.2355513     0.9127216     0.7901076
H           2.2700169     1.2656003     1.1414732
C           3.3687980     0.4214284    -0.5111268
C           4.6106142     0.0069927    -0.9958788
H           4.6830000    -0.3622236    -2.0139182
C           5.7276988     0.0818694    -0.1650878
H           6.6954908    -0.2371966    -0.5421940
C           0.9328037    -1.3383103    -0.3151259
H          -0.0508375    -1.4684695     0.1378123
H           1.7171101    -1.5154981     0.4249814
H           1.0613214    -2.0772392    -1.1151781
O           0.0968879     0.7555303    -1.1749521
18
234_C8H8O2_13-0-1-8 (-45,) energy =    -460.1158671
C           1.0451104    -0.0313819    -0.9356559
O           2.2718631     0.4914719    -1.3137548
C           5.6270775     0.4746536     1.1639789
H           6.5099136     0.4821411     1.7964898
C           4.4106627     0.9555108     1.6529800
H           4.3448249     1.3433080     2.6657946
C           3.2739629     0.9573728     0.8433525
H           2.3307822     1.3580930     1.2039505
C           3.3632285     0.4565905    -0.4576026
C           4.5730636    -0.0229472    -0.9596747
H           4.6117843    -0.3936978    -1.9790570
C           5.7050865    -0.0077649    -0.1444649
H           6.6494291    -0.3780971    -0.5338260
C           1.0897834    -1.3855671    -0.2611449
H           0.0726079    -1.6896811    -0.0128594
H           1.7076055    -1.3795897     0.6404020
H           1.5313284    -2.1106717    -0.9545501
O           0.0419355     0.5349708    -1.2763518
18
234_C8H8O2_13-0-1-8 (-30,) energy =    -460.1173904
C           1.0239589    -0.0416920    -1.0264189
O           2.1970068     0.6391785    -1.2939503
C           5.5861229     0.4239286     1.1295580
H           6.4766144     0.3814986     1.7499308
C           4.4037479     0.9668713     1.6377346
H           4.3727909     1.3520611     2.6531752
C           3.2580453     1.0308473     0.8437085
H           2.3397836     1.4749921     1.2170734
C           3.3042505     0.5335090    -0.4600853
C           4.4800082    -0.0045384    -0.9822157
H           4.4878283    -0.3668309    -2.0054792
C           5.6220436    -0.0551496    -0.1816379
H           6.5407569    -0.4716449    -0.5852823
C           1.1607416    -1.3599569    -0.2939240
H           0.1897053    -1.8556749    -0.2979458
H           1.4912369    -1.2159365     0.7389942
H           1.9073416    -1.9908138    -0.7876283
O          -0.0060086     0.3943985    -1.4665791
18
234_C8H8O2_13-0-1-8 (-15,) energy =    -460.1184101
C           1.3074329    -1.4390424     0.1283954
O           2.3081730    -1.1190632     1.0237439
C           5.5441763     1.3533578     0.1141996
H           6.3936834     1.9935935    -0.1051655
C           4.4808373     1.8385881     0.8784345
H           4.5007133     2.8569845     1.2564185
C           3.3870091     1.0198047     1.1637822
H           2.5552241     1.3743738     1.7646671
C           3.3683819    -0.2867771     0.6769421
C           4.4308119    -0.7893628    -0.0753559
H           4.4036366    -1.8200893    -0.4163616
C           5.5173248     0.0393412    -0.3586627
H           6.3471747    -0.3469930    -0.9439208
C           1.2047268    -0.5919000    -1.1222177
H           0.3035218    -0.8888349    -1.6589854
H           2.0766828    -0.7297480    -1.7691486
H           1.1569348     0.4720011    -0.8687099
O           0.5532391    -2.3309643     0.4138413
18
234_C8H8O2_13-0-1-8 (0,) energy =    -460.1187406
C           1.2441620    -1.3704113     0.1606509
O           2.3539278    -1.2153961     0.9657599
C           5.5278158     1.3564755     0.1153476
H           6.3626791     2.0203192    -0.0896933
C           4.4331924     1.8152335     0.8515296
H           4.4146288     2.8360182     1.2230731
C           3.3592784     0.9653485     1.1204500
H           2.5070715     1.2988168     1.7048961
C           3.3901510    -0.3442127     0.6410289
C           4.4824983    -0.8193978    -0.0846555
H           4.4902007    -1.8513170    -0.4224991
C           5.5510179     0.0390789    -0.3477948
H           6.4047856    -0.3257373    -0.9120295
C           1.1880490    -0.5487263    -1.1092981
H           0.2571196    -0.7858885    -1.6245219
H           2.0389420    -0.7719721    -1.7607434
H           1.2259366     0.5224994    -0.8873462
O           0.3929441    -2.1435911     0.5123726
18
234_C8H8O2_13-0-1-8 (15,) energy =    -460.1184102
C           1.2194066    -1.2991087     0.2227550
O           2.4201911    -1.2971165     0.9034569
C           5.5345172     1.3684953     0.1246120
H           6.3548894     2.0550106    -0.0634709
C           4.4088280     1.7996885     0.8302287
H           4.3524246     2.8213207     1.1955888
C           3.3538437     0.9209346     1.0796350
H           2.4812405     1.2336022     1.6455801
C           3.4330964    -0.3898176     0.6074279
C           4.5553867    -0.8363172    -0.0894529
H           4.5962452    -1.8681060    -0.4247710
C           5.6068339     0.0497937    -0.3292584
H           6.4839457    -0.2935328    -0.8707312
C           1.1623847    -0.5245248    -1.0768885
H           0.1984473    -0.7218201    -1.5463067
H           1.9743297    -0.8269469    -1.7460203
H           1.2709464     0.5508195    -0.9046358
O           0.3126774    -1.9488955     0.6716331
18
234_C8H8O2_13-0-1-8 (30,) energy =    -460.1173904
C           1.1992448    -1.2484020     0.2249865
O           2.4609198    -1.3786502     0.7749052
C           5.5309194     1.3806324     0.1688571
H           6.3408323     2.0895996     0.0237908
C           4.3672941     1.7731849     0.8343791
H           4.2709601     2.7872054     1.2124415
C           3.3258430     0.8653340     1.0303160
H           2.4268366     1.1494635     1.5696936
C           3.4556155    -0.4360168     0.5414360
C           4.6147085    -0.8430389    -0.1183806
H           4.6914851    -1.8668039    -0.4710788
C           5.6532906     0.0712060    -0.3006838
H           6.5589488    -0.2424426    -0.8123859
C           1.1138943    -0.5316181    -1.1061847
H           0.1007341    -0.6466790    -1.4921010
H           1.8357140    -0.9569787    -1.8112950
H           1.3468212     0.5327757    -1.0076970
O           0.2750873    -1.7850137     0.7751955
18
234_C8H8O2_13-0-1-8 (45,) energy =    -460.1158671
C           1.2116616    -1.1557483     0.2321793
O           2.5209880    -1.3934305     0.6200294
C           5.5732542     1.4201289     0.2144920
H           6.3797283     2.1413465     0.1197820
C           4.3712775     1.7888428     0.8222026
H           4.2410240     2.7966630     1.2067110
C           3.3336418     0.8651984     0.9555405
H           2.4066454     1.1331805     1.4545998
C           3.5053057    -0.4289035     0.4584824
C           4.7023057    -0.8112758    -0.1470884
H           4.8083015    -1.8281220    -0.5116210
C           5.7365759     0.1177660    -0.2630162
H           6.6710629    -0.1780988    -0.7317686
C           1.0375065    -0.5069366    -1.1240993
H          -0.0271922    -0.3721744    -1.3165374
H           1.4687162    -1.1645541    -1.8877397
H           1.5533781     0.4541090    -1.1933419
O           0.3175868    -1.5881098     0.9081103
18
234_C8H8O2_13-0-1-8 (60,) energy =    -460.1143200
C           1.2026864    -1.1507577     0.3043069
O           2.5415270    -1.4653869     0.5089105
C           5.5645423     1.3995152     0.2977821
H           6.3642918     2.1326311     0.2491059
C           4.3268010     1.7464604     0.8413619
H           4.1601862     2.7500196     1.2230887
C           3.2964661     0.8073744     0.9158182
H           2.3431630     1.0629040     1.3698624
C           3.5126582    -0.4822289     0.4233559
C           4.7464957    -0.8427662    -0.1211690
H           4.8857886    -1.8547337    -0.4878899
C           5.7708279     0.1013776    -0.1762517
H           6.7327550    -0.1788505    -0.5967302
C           0.8931747    -0.5760680    -1.0594353
H          -0.1411785    -0.2309031    -1.0843147
H           1.0247695    -1.3726702    -1.8015432
H           1.5708303     0.2382367    -1.3277298
O           0.3850862    -1.4772209     1.1204719
18
234_C8H8O2_13-0-1-8 (75,) energy =    -460.1128421
C           1.2526710    -1.1569233     0.2596812
O           2.6026209    -1.5032298     0.3222938
C           5.5941757     1.4019359     0.3906336
H           6.3861520     2.1447864     0.4084602
C           4.3283078     1.7122900     0.8879401
H           4.1304734     2.6978754     1.3004985
C           3.3060384     0.7608030     0.8763211
H           2.3316617     0.9909276     1.2971891
C           3.5611178    -0.5063189     0.3452191
C           4.8244710    -0.8306578    -0.1551587
H           4.9932068    -1.8249143    -0.5563071
C           5.8375838     0.1254680    -0.1241215
H           6.8213000    -0.1280034    -0.5098725
C           0.8208568    -0.6845577    -1.1069174
H          -0.2143276    -0.3422408    -1.0737419
H           0.9063433    -1.5234784    -1.8075039
H           1.4733129     0.1138679    -1.4729076
O           0.5295387    -1.3601944     1.1949696
18
234_C8H8O2_13-0-1-8 (90,) energy =    -460.1121263
C           1.2513641    -1.0842579     0.2387893
O           2.5990361    -1.4442394     0.1924882
C           5.6444189     1.3945213     0.4664489
H           6.4506257     2.1192402     0.5309756
C           4.3728156     1.7118608     0.9436975
H           4.1845652     2.6858754     1.3872139
C           3.3301502     0.7850723     0.8719706
H           2.3519562     1.0234655     1.2767657
C           3.5730071    -0.4668990     0.3011406
C           4.8422188    -0.7991146    -0.1795974
H           4.9992384    -1.7812445    -0.6139292
C           5.8737306     0.1329606    -0.0896060
H           6.8608723    -0.1280768    -0.4614349
C           0.6955975    -0.7780914    -1.1274870
H          -0.3580145    -0.5053012    -1.0541007
H           0.8111555    -1.6559732    -1.7726632
H           1.2659385     0.0369852    -1.5867486
O           0.6359129    -1.1034427     1.2684085
18
234_C8H8O2_13-0-1-8 (105,) energy =    -460.1130600
C           1.2644398    -1.0046622     0.1703459
O           2.6082049    -1.3500373     0.0782793
C           5.7220639     1.3904163     0.5438743
H           6.5463506     2.0892704     0.6515717
C           4.4575729     1.7124311     1.0368930
H           4.2934072     2.6639717     1.5354623
C           3.3896423     0.8205106     0.9118756
H           2.4178317     1.0615305     1.3269344
C           3.6024978    -0.4007148     0.2685218
C           4.8638951    -0.7392917    -0.2273459
H           4.9954134    -1.6981555    -0.7184223
C           5.9200763     0.1578440    -0.0837197
H           6.9007348    -0.1078681    -0.4691740
C           0.6210193    -0.9269898    -1.1886831
H          -0.4500232    -0.7446365    -1.0906412
H           0.8000130    -1.8516519    -1.7469422
H           1.0887361    -0.1131740    -1.7555127
O           0.7227182    -0.8099534     1.2247706
18
234_C8H8O2_13-0-1-8 (120,) energy =    -460.1158788
C           1.2236047    -0.8106641     0.0551514
O           2.5440263    -1.2162994     0.1099354
C           5.7878882     1.3669159     0.6049347
H           6.6461190     2.0227244     0.7196391
C           4.5814888     1.6715700     1.2363923
H           4.4985768     2.5650361     1.8494289
C           3.4712322     0.8334212     1.1077456
H           2.5409747     1.0511234     1.6164375
C           3.5833651    -0.3092917     0.3129845
C           4.7847478    -0.6320020    -0.3208985
H           4.8363049    -1.5328709    -0.9239758
C           5.8861934     0.2084293    -0.1693187
H           6.8212338    -0.0423222    -0.6628900
C           0.6108891    -1.1638163    -1.2751846
H          -0.4656159    -0.9885062    -1.2532737
H           0.8241251    -2.2038874    -1.5401033
H           1.0722604    -0.5321382    -2.0438129
O           0.6738880    -0.2169397     0.9468560
18
234_C8H8O2_13-0-1-8 (135,) energy =    -460.1194435
C           1.2106503    -0.7087127    -0.0495077
O           2.5241791    -1.1146332    -0.0037229
C           5.8312186     1.3412191     0.6880685
H           6.7079385     1.9613729     0.8514948
C           4.6294646     1.6394607     1.3306541
H           4.5686992     2.4928472     2.0007091
C           3.4938890     0.8477362     1.1395876
H           2.5648080     1.0652926     1.6478434
C           3.5790708    -0.2424289     0.2708594
C           4.7762701    -0.5592935    -0.3743823
H           4.8059322    -1.4202338    -1.0346037
C           5.9011567     0.2350024    -0.1620881
H           6.8320659    -0.0109480    -0.6656815
C           0.5273360    -1.2983137    -1.2575058
H          -0.5517837    -1.1571596    -1.1824289
H           0.7681399    -2.3595634    -1.3685949
H           0.9018816    -0.7825523    -2.1496738
O           0.7072638     0.0544877     0.7365656
18
234_C8H8O2_13-0-1-8 (150,) energy =    -460.1226153
C           1.2069973    -0.5890092    -0.1941383
O           2.5047125    -1.0262145    -0.1120581
C           5.8567365     1.3073331     0.7623169
H           6.7461575     1.8932788     0.9758878
C           4.6601221     1.5806593     1.4251987
H           4.6159763     2.3803339     2.1596578
C           3.5068986     0.8345132     1.1679668
H           2.5794872     1.0420242     1.6821126
C           3.5716058    -0.1863077     0.2172744
C           4.7634659    -0.4776516    -0.4490301
H           4.7767398    -1.2864456    -1.1727594
C           5.9053231     0.2719547    -0.1741005
H           6.8322409     0.0459698    -0.6940691
C           0.4571466    -1.4143545    -1.2107082
H          -0.6144395    -1.2352674    -1.1133529
H           0.6792729    -2.4790713    -1.0956372
H           0.7851153    -1.1161498    -2.2133032
O           0.7559648     0.3479104     0.4173271
18
234_C8H8O2_13-0-1-8 (165,) energy =    -460.1247670
C           1.2418647    -0.4722866    -0.3879488
O           2.5047290    -0.9770518    -0.2123541
C           5.8598133     1.2810214     0.8278785
H           6.7490257     1.8464925     1.0916780
C           4.6629443     1.4967800     1.5126298
H           4.6184667     2.2310660     2.3123262
C           3.5114489     0.7767635     1.1871451
H           2.5821725     0.9449998     1.7141905
C           3.5776804    -0.1593222     0.1545481
C           4.7671537    -0.3914070    -0.5355471
H           4.7815148    -1.1359930    -1.3252424
C           5.9093097     0.3322547    -0.1955804
H           6.8368799     0.1528440    -0.7321688
C           0.3941308    -1.4818455    -1.1230256
H          -0.6527727    -1.1792335    -1.0796422
H           0.5208442    -2.4817553    -0.6982745
H           0.7158568    -1.5256050    -2.1697724
O           0.8863418     0.6261478    -0.0398122
18
234_C8H8O2_13-0-1-8 (180,) energy =    -460.1254817
C           1.2565784    -0.3597467    -0.5140383
O           2.5106166    -0.8932693    -0.3653596
C           5.8628537     1.2564054     0.8888557
H           6.7507811     1.7924215     1.2117437
C           4.6541381     1.4297517     1.5657429
H           4.5990684     2.1017344     2.4177862
C           3.5053919     0.7469303     1.1627839
H           2.5664724     0.8848845     1.6834544
C           3.5850545    -0.1095382     0.0647118
C           4.7843688    -0.2962940    -0.6204751
H           4.8096515    -0.9772979    -1.4653627
C           5.9250333     0.3894770    -0.2036928
H           6.8614130     0.2446263    -0.7353593
C           0.3071999    -1.4339803    -0.9871679
H          -0.6914622    -1.0105703    -1.0976037
H           0.2863762    -2.2601704    -0.2689537
H           0.6474003    -1.8426805    -1.9442751
O           0.9718161     0.7917892    -0.2977430
