22
148_C7H13NO_7-0-16-17 (-165,) energy =    -404.5714241
C           2.4157134    -0.6783733    -0.6828235
H           1.4844679    -0.5848817    -0.0984593
H           2.6473150     0.3226734    -1.0580232
C           3.8014485    -0.2268452     1.3888058
H           4.5930054    -0.6079973     2.0427631
H           2.9034447    -0.0823963     2.0016667
H           4.1147438     0.7576467     1.0220328
C           3.5326996    -1.1911821     0.2286308
H           4.4485343    -1.3282578    -0.3618039
H           3.2674402    -2.1770689     0.6317343
C           1.8460098    -3.3779076    -3.2520254
H           1.3299592    -4.3395606    -3.3190754
H           2.7901138    -3.4642501    -3.8005226
C           2.1370570    -2.9774242    -1.7913072
H           3.0836556    -3.3876251    -1.4272343
H           1.3400320    -3.3224657    -1.1108908
N           2.1799888    -1.5176637    -1.8541260
C           1.4346779    -1.0195803    -2.9027498
C           1.0274188    -2.1961009    -3.7913683
H           1.2002361    -1.9641872    -4.8455282
H          -0.0524397    -2.3493233    -3.6654372
O           1.1444803     0.1555604    -3.0635078
22
148_C7H13NO_7-0-16-17 (-150,) energy =    -404.5727505
C           2.3451313    -0.7129163    -0.6142739
H           1.4568764    -0.7704910     0.0383536
H           2.4255673     0.3240643    -0.9522372
C           3.8179402    -0.2036324     1.3862069
H           4.7008106    -0.5128655     1.9558468
H           2.9600083    -0.2154136     2.0695559
H           3.9724599     0.8334239     1.0657352
C           3.5847667    -1.1258948     0.1849330
H           4.4600884    -1.1085351    -0.4775161
H           3.4781513    -2.1598992     0.5382247
C           1.7936121    -3.3375119    -3.2587187
H           1.2205867    -4.2617824    -3.3720298
H           2.7662393    -3.4848839    -3.7401598
C           2.0052648    -2.9657457    -1.7765184
H           2.9031588    -3.4281102    -1.3550410
H           1.1486980    -3.2732207    -1.1528653
N           2.1256333    -1.5108904    -1.8131653
C           1.5073303    -0.9573166    -2.9154095
C           1.0959966    -2.1010782    -3.8441868
H           1.3650716    -1.8735521    -4.8789015
H           0.0020763    -2.1847318    -3.8040487
O           1.3140416     0.2348958    -3.0947203
22
148_C7H13NO_7-0-16-17 (-135,) energy =    -404.5736822
C           2.2947007    -0.7550775    -0.5601637
H           1.4700661    -0.9324023     0.1503951
H           2.2439997     0.2942136    -0.8651597
C           3.8451833    -0.1818521     1.3673529
H           4.8040563    -0.4043044     1.8476566
H           3.0549090    -0.3466727     2.1101087
H           3.8400104     0.8836326     1.1085267
C           3.6331182    -1.0540607     0.1257221
H           4.4438749    -0.8875890    -0.5949612
H           3.6807052    -2.1129771     0.4127569
C           1.7586211    -3.3405363    -3.2429698
H           1.1445633    -4.2316089    -3.3989975
H           2.7525488    -3.5424212    -3.6563838
C           1.8871604    -2.9801048    -1.7480362
H           2.7360478    -3.4797842    -1.2699865
H           0.9805720    -3.2520720    -1.1818205
N           2.0679185    -1.5326467    -1.7683082
C           1.5840969    -0.9457428    -2.9179569
C           1.1736255    -2.0680026    -3.8735851
H           1.5275600    -1.8593505    -4.8864098
H           0.0766330    -2.0898816    -3.9106895
O           1.4872915     0.2552475    -3.1163351
22
148_C7H13NO_7-0-16-17 (-120,) energy =    -404.5740949
C           2.2385600    -0.8006607    -0.4934235
H           1.4925029    -1.0810775     0.2668717
H           2.0713961     0.2488519    -0.7537007
C           3.8734938    -0.1646781     1.3463556
H           4.8859259    -0.3072923     1.7391920
H           3.1671953    -0.4511465     2.1354750
H           3.7382025     0.9061656     1.1529649
C           3.6521737    -0.9884611     0.0739369
H           4.3800430    -0.6995605    -0.6943863
H           3.8282852    -2.0510291     0.2898328
C           1.7280278    -3.3506763    -3.2135583
H           1.0852956    -4.2116981    -3.4159979
H           2.7370333    -3.5980673    -3.5603938
C           1.7716884    -3.0011139    -1.7101525
H           2.5763621    -3.5252727    -1.1829784
H           0.8256517    -3.2520538    -1.2027237
N           1.9903161    -1.5599956    -1.7075364
C           1.6485392    -0.9503326    -2.8928593
C           1.2466618    -2.0511891    -3.8771920
H           1.6762676    -1.8601417    -4.8637543
H           0.1546204    -2.0213906    -3.9861391
O           1.6468934     0.2537173    -3.0985105
22
148_C7H13NO_7-0-16-17 (-105,) energy =    -404.5740735
C           2.1896299    -0.8587329    -0.4536297
H           1.5298145    -1.2348134     0.3415734
H           1.9166785     0.1825020    -0.6525660
C           3.9035467    -0.1557045     1.2914087
H           4.9550705    -0.2124136     1.5927352
H           3.2991721    -0.5515051     2.1171843
H           3.6480145     0.9039334     1.1713422
C           3.6561400    -0.9340669    -0.0043929
H           4.2850012    -0.5362008    -0.8100559
H           3.9471657    -1.9845204     0.1334894
C           1.7039653    -3.3731389    -3.2078656
H           1.0368576    -4.2022878    -3.4586781
H           2.7213186    -3.6675930    -3.4871837
C           1.6624197    -3.0309946    -1.7018134
H           2.4191367    -3.5786815    -1.1283007
H           0.6810512    -3.2594848    -1.2556613
N           1.9179526    -1.5969041    -1.6753292
C           1.7242927    -0.9726576    -2.8834880
C           1.3325932    -2.0507033    -3.8975621
H           1.8389211    -1.8815135    -4.8510978
H           0.2535926    -1.9666015    -4.0816142
O           1.8216565     0.2284584    -3.0853804
22
148_C7H13NO_7-0-16-17 (-90,) energy =    -404.5736896
C           2.1587250    -0.9033112    -0.4034137
H           1.5982105    -1.3899492     0.4053483
H           1.7688688     0.1140988    -0.5169408
C           3.9171007    -0.0993103     1.2536661
H           4.9889944    -0.0532977     1.4743084
H           3.4246890    -0.5962637     2.0990551
H           3.5423010     0.9303546     1.2093785
C           3.6543212    -0.8399188    -0.0607984
H           4.1709238    -0.3383460    -0.8873321
H           4.0602077    -1.8593254    -0.0030194
C           1.6810331    -3.3574595    -3.2140748
H           0.9804002    -4.1393909    -3.5193372
H           2.6933020    -3.7138124    -3.4333970
C           1.5655407    -3.0315207    -1.7072313
H           2.2644503    -3.6191233    -1.0999657
H           0.5517839    -3.2234045    -1.3214010
N           1.8818136    -1.6108388    -1.6434230
C           1.8358217    -0.9686269    -2.8543687
C           1.4392155    -2.0068692    -3.9075095
H           2.0141036    -1.8621139    -4.8254156
H           0.3812454    -1.8518593    -4.1564687
O           2.0445857     0.2229414    -3.0302911
22
148_C7H13NO_7-0-16-17 (-75,) energy =    -404.5729964
C           2.1523335    -1.0107082    -0.3462577
H           1.7318791    -1.6290600     0.4553690
H           1.6239445    -0.0491454    -0.3337314
C           3.9162600    -0.0571392     1.2200803
H           4.9877112     0.1173904     1.3660363
H           3.5576529    -0.6514207     2.0702200
H           3.4134079     0.9167115     1.2594710
C           3.6494372    -0.7635300    -0.1122206
H           4.0257973    -0.1585939    -0.9435235
H           4.1835739    -1.7230636    -0.1429490
C           1.6056737    -3.3570151    -3.2382918
H           0.8651995    -4.0753955    -3.6004994
H           2.5985946    -3.7860219    -3.4115438
C           1.4329820    -3.0540974    -1.7326559
H           2.0416273    -3.7126570    -1.1017039
H           0.3853035    -3.1641609    -1.4108793
N           1.8684685    -1.6677427    -1.6155811
C           1.9338832    -0.9985871    -2.8094688
C           1.5086172    -1.9767472    -3.9083025
H           2.1400365    -1.8592876    -4.7924265
H           0.4808150    -1.7305957    -4.2054680
O           2.2433389     0.1771797    -2.9434380
22
148_C7H13NO_7-0-16-17 (-60,) energy =    -404.5717349
C           2.2205393    -1.1080758    -0.3070191
H           1.9800724    -1.8495519     0.4631977
H           1.5413459    -0.2559440    -0.1569819
C           3.9089402    -0.0066565     1.2343498
H           4.9445097     0.3355172     1.3354357
H           3.7163195    -0.7251805     2.0414872
H           3.2572920     0.8602517     1.3988383
C           3.6692584    -0.6275683    -0.1451152
H           3.8821362     0.0982842    -0.9337058
H           4.3463500    -1.4789360    -0.2973433
C           1.5175061    -3.3761647    -3.2298059
H           0.7127917    -4.0086235    -3.6146826
H           2.4609647    -3.9156721    -3.3665576
C           1.3290694    -3.0415407    -1.7347030
H           1.8215021    -3.7670544    -1.0766412
H           0.2637572    -3.0118367    -1.4552073
N           1.9404149    -1.7228846    -1.6019332
C           2.0864768    -1.0619142    -2.7946393
C           1.5978077    -1.9979872    -3.9040932
H           2.2684374    -1.9535716    -4.7658720
H           0.6143460    -1.6418848    -4.2377557
O           2.4929852     0.0835413    -2.9333642
22
148_C7H13NO_7-0-16-17 (-45,) energy =    -404.5702673
C           2.2961815    -1.1863320    -0.2981222
H           2.2562718    -2.0152891     0.4195658
H           1.4883127    -0.4905709    -0.0184333
C           3.8830405     0.0108245     1.2646271
H           4.8462924     0.5251063     1.3495709
H           3.8884553    -0.8247639     1.9763958
H           3.1044616     0.7143496     1.5850281
C           3.6456404    -0.4682135    -0.1711670
H           3.6741474     0.3697488    -0.8694228
H           4.4447513    -1.1578750    -0.4734387
C           1.4135810    -3.3765424    -3.2227022
H           0.5501244    -3.9242716    -3.6103170
H           2.2943362    -4.0185752    -3.3318629
C           1.2401613    -2.9892008    -1.7407895
H           1.6190452    -3.7564148    -1.0553050
H           0.1818727    -2.8141916    -1.4872416
N           2.0180212    -1.7593172    -1.6139104
C           2.2258898    -1.1267521    -2.8163985
C           1.6541905    -2.0282282    -3.9158055
H           2.3368010    -2.0692818    -4.7683618
H           0.7197987    -1.5725014    -4.2689101
O           2.7357796    -0.0284746    -2.9858701
22
148_C7H13NO_7-0-16-17 (-30,) energy =    -404.5690951
C           2.3702839    -1.2600421    -0.2863510
H           2.5025274    -2.1269180     0.3764425
H           1.4863486    -0.7179491     0.0906280
C           3.8574072     0.0312407     1.2866810
H           4.7330523     0.6838675     1.3687594
H           4.0402356    -0.8510060     1.9134655
H           3.0027203     0.5703365     1.7145433
C           3.6017661    -0.3542231    -0.1744967
H           3.4656426     0.5350997    -0.7913386
H           4.4742826    -0.8791350    -0.5820421
C           1.3273664    -3.3691246    -3.2071057
H           0.4159528    -3.8347537    -3.5922509
H           2.1408576    -4.0965024    -3.3017248
C           1.1858328    -2.9434386    -1.7330421
H           1.4853095    -3.7324303    -1.0324880
H           0.1488262    -2.6620574    -1.4865056
N           2.0777793    -1.7929085    -1.6156571
C           2.3564374    -1.2025940    -2.8272235
C           1.7026047    -2.0613154    -3.9159558
H           2.3817854    -2.1799519    -4.7639165
H           0.8190102    -1.5206812    -4.2799674
O           2.9799654    -0.1694514    -3.0195953
22
148_C7H13NO_7-0-16-17 (-15,) energy =    -404.5683264
C           2.4470043    -1.3385110    -0.2758166
H           2.7267331    -2.2152307     0.3284467
H           1.5271190    -0.9365661     0.1820000
C           3.8244873     0.0611193     1.2969115
H           4.6110965     0.8186658     1.3786993
H           4.1489924    -0.8178690     1.8683401
H           2.9273501     0.4614942     1.7860176
C           3.5562671    -0.2867665    -0.1718660
H           3.2783338     0.6080365    -0.7324418
H           4.4694359    -0.6658558    -0.6421398
C           1.2516500    -3.3513753    -3.1991188
H           0.3033823    -3.7384126    -3.5822515
H           1.9990141    -4.1468516    -3.2912207
C           1.1474259    -2.9090756    -1.7268101
H           1.3896878    -3.7157451    -1.0235737
H           0.1359396    -2.5495872    -1.4759078
N           2.1210087    -1.8270168    -1.6140217
C           2.4696961    -1.2829570    -2.8293866
C           1.7385544    -2.0843555    -3.9132538
H           2.4035843    -2.2655484    -4.7612464
H           0.9052999    -1.4693653    -4.2779653
O           3.2018101    -0.3260851    -3.0311044
22
148_C7H13NO_7-0-16-17 (0,) energy =    -404.5679994
C           2.5241408    -1.4297974    -0.2880077
H           2.9419888    -2.2954665     0.2509683
H           1.6008140    -1.1573915     0.2493524
C           3.7911956     0.0874611     1.2665599
H           4.4999020     0.9192083     1.3387236
H           4.2237459    -0.7644314     1.8065237
H           2.8761583     0.3843491     1.7947693
C           3.5089807    -0.2597151    -0.1998976
H           3.1022809     0.6101019    -0.7232977
H           4.4384818    -0.5131559    -0.7160852
C           1.1415915    -3.3392521    -3.1965079
H           0.1599115    -3.6453077    -3.5685314
H           1.8177005    -4.1953617    -3.2957435
C           1.0910253    -2.8890755    -1.7234420
H           1.2856866    -3.7119825    -1.0237887
H           0.1123283    -2.4582423    -1.4562102
N           2.1391719    -1.8778526    -1.6246400
C           2.5431662    -1.3888669    -2.8457990
C           1.7269022    -2.1195880    -3.9189264
H           2.3607868    -2.3586810    -4.7762043
H           0.9455538    -1.4333249    -4.2712898
O           3.3764727    -0.5215160    -3.0591530
22
148_C7H13NO_7-0-16-17 (15,) energy =    -404.5680506
C           2.5976036    -1.5161540    -0.2871052
H           3.1548634    -2.3477634     0.1745215
H           1.6918470    -1.3816701     0.3236581
C           3.7500430     0.1070370     1.2543302
H           4.3578834     1.0158022     1.3177833
H           4.3085497    -0.6991817     1.7466021
H           2.8345562     0.2782751     1.8349786
C           3.4382022    -0.2373573    -0.2064816
H           2.8948836     0.5883459    -0.6793071
H           4.3598409    -0.3585189    -0.7784728
C           1.0367417    -3.3140700    -3.1812016
H           0.0310136    -3.5374609    -3.5477596
H           1.6385864    -4.2235748    -3.2840094
C           1.0313356    -2.8619128    -1.7075722
H           1.1684173    -3.6988262    -1.0109796
H           0.0902261    -2.3588112    -1.4328152
N           2.1528757    -1.9310561    -1.6166836
C           2.6071205    -1.4986294    -2.8404656
C           1.7191253    -2.1485265    -3.9083852
H           2.3217383    -2.4413762    -4.7714097
H           0.9974749    -1.3958855    -4.2523768
O           3.5306966    -0.7286789    -3.0578399
22
148_C7H13NO_7-0-16-17 (30,) energy =    -404.5687022
C           2.7104859    -1.5905655    -0.2793934
H           3.4291447    -2.3374256     0.0937493
H           1.8442928    -1.6331127     0.3942494
C           3.7055193     0.1482787     1.2565596
H           4.1632388     1.1413668     1.3177086
H           4.4232937    -0.5715777     1.6695740
H           2.8230634     0.1480858     1.9093014
C           3.3407909    -0.1951721    -0.1915987
H           2.6310555     0.5444740    -0.5841608
H           4.2204270    -0.1490166    -0.8352171
C           0.9865373    -3.2379849    -3.1871197
H          -0.0338077    -3.3456136    -3.5653396
H           1.4848365    -4.2078020    -3.2923127
C           1.0142414    -2.8005994    -1.7087309
H           1.0511567    -3.6546929    -1.0212195
H           0.1302152    -2.2006142    -1.4396007
N           2.2312070    -1.9992981    -1.6004318
C           2.7399420    -1.6084739    -2.8154425
C           1.8012601    -2.1498973    -3.8991981
H           2.3780287    -2.5032521    -4.7572366
H           1.1707064    -1.3209611    -4.2468843
O           3.7483011    -0.9451322    -3.0099057
22
148_C7H13NO_7-0-16-17 (45,) energy =    -404.5702978
C           2.8233719    -1.7033734    -0.2846342
H           3.7278240    -2.2816802    -0.0477495
H           2.0737892    -1.9683165     0.4694072
C           3.6539782     0.1722224     1.2028251
H           3.8948876     1.2393490     1.2564126
H           4.5619342    -0.3844878     1.4658050
H           2.9010552    -0.0376598     1.9734542
C           3.1555767    -0.2070336    -0.1951245
H           2.2576326     0.3762589    -0.4422737
H           3.9079763     0.0309171    -0.9498636
C           0.8869491    -3.1601172    -3.1721800
H          -0.1341572    -3.1250010    -3.5618398
H           1.2447249    -4.1914103    -3.2630618
C           0.9611049    -2.7172905    -1.6972819
H           0.8300771    -3.5530097    -1.0001044
H           0.1927439    -1.9638858    -1.4595503
N           2.3039721    -2.1517045    -1.5785616
C           2.8428066    -1.7851479    -2.7883044
C           1.8556679    -2.2033592    -3.8821113
H           2.3877022    -2.6417590    -4.7300505
H           1.3513875    -1.2982488    -4.2456191
O           3.9171949    -1.2260017    -2.9573218
22
148_C7H13NO_7-0-16-17 (60,) energy =    -404.5723754
C           2.9031950    -1.7700319    -0.3264280
H           3.9088519    -2.1998853    -0.2400939
H           2.2984195    -2.1944443     0.4829979
C           3.6114323     0.1704313     1.1539862
H           3.6853406     1.2603589     1.2339313
H           4.6216748    -0.2394709     1.2738922
H           3.0062377    -0.1844974     1.9979466
C           3.0031061    -0.2432358    -0.1894026
H           2.0023651     0.1980642    -0.2970176
H           3.6138721     0.1346558    -1.0144177
C           0.8237356    -3.0959149    -3.1754520
H          -0.1825587    -2.9598283    -3.5809979
H           1.0671575    -4.1622739    -3.2329223
C           0.9290144    -2.6232699    -1.7104996
H           0.6892253    -3.4158685    -0.9923834
H           0.2534384    -1.7763558    -1.5084362
N           2.3290953    -2.2247126    -1.5900784
C           2.9061172    -1.9189023    -2.7993255
C           1.8995769    -2.2704746    -3.8980075
H           2.3941520    -2.7899109    -4.7227131
H           1.4988645    -1.3301788    -4.2991144
O           4.0219289    -1.4424635    -2.9505849
22
148_C7H13NO_7-0-16-17 (75,) energy =    -404.5737002
C           2.9545693    -1.7824919    -0.3357871
H           4.0025312    -2.0984384    -0.3789481
H           2.4782157    -2.3192070     0.4938713
C           3.5699876     0.1474214     1.2048883
H           3.5299487     1.2328759     1.3462727
H           4.6253998    -0.1503431     1.2169804
H           3.0828262    -0.3188789     2.0705606
C           2.8953718    -0.2643394    -0.1069240
H           1.8478066     0.0670611    -0.1065904
H           3.3878493     0.2260469    -0.9539320
C           0.7709746    -3.0676828    -3.1205840
H          -0.2211397    -2.8802721    -3.5403056
H           0.9363978    -4.1504011    -3.1220230
C           0.9035380    -2.5298444    -1.6792692
H           0.6126062    -3.2684707    -0.9231080
H           0.2823327    -1.6333651    -1.5233305
N           2.3243022    -2.2168550    -1.5743768
C           2.9305201    -2.0215416    -2.7915344
C           1.9066874    -2.3610502    -3.8779973
H           2.3673068    -2.9604042    -4.6674698
H           1.5759200    -1.4193545    -4.3353335
O           4.0770893    -1.6298978    -2.9535202
22
148_C7H13NO_7-0-16-17 (90,) energy =    -404.5741509
C           3.0171601    -1.7462680    -0.4057573
H           4.0822762    -1.9564482    -0.5443883
H           2.6520391    -2.3768789     0.4161561
C           3.5449029     0.1275189     1.2335521
H           3.4081001     1.1906748     1.4588359
H           4.6226213    -0.0615088     1.1606469
H           3.1640324    -0.4452043     2.0884349
C           2.8271476    -0.2605640    -0.0626069
H           1.7556972    -0.0347720     0.0256830
H           3.2104707     0.3369464    -0.8985952
C           0.7573795    -3.0319043    -3.1242031
H          -0.2214158    -2.8122411    -3.5592634
H           0.8581735    -4.1206433    -3.0596655
C           0.9191123    -2.4159268    -1.7168830
H           0.5994022    -3.0957461    -0.9177467
H           0.3371052    -1.4868131    -1.6126624
N           2.3511036    -2.1583875    -1.6299048
C           2.9768170    -2.1007569    -2.8517093
C           1.9331094    -2.4411293    -3.9187200
H           2.3569374    -3.1135058    -4.6688618
H           1.6587722    -1.5106191    -4.4327428
O           4.1499031    -1.8106990    -3.0336181
22
148_C7H13NO_7-0-16-17 (105,) energy =    -404.5741818
C           3.0696876    -1.6990159    -0.4684193
H           4.1373179    -1.8007265    -0.6850574
H           2.8170947    -2.4111514     0.3310670
C           3.5186721     0.0978669     1.2742898
H           3.2931571     1.1222470     1.5897091
H           4.6027394     0.0252917     1.1261266
H           3.2509986    -0.5714014     2.1013853
C           2.7602480    -0.2673607    -0.0054965
H           1.6803994    -0.1558782     0.1623396
H           3.0273509     0.4266004    -0.8124081
C           0.7401130    -2.9985504    -3.1146123
H          -0.2263280    -2.7568746    -3.5653006
H           0.7839102    -4.0847819    -2.9806165
C           0.9342712    -2.3027517    -1.7488026
H           0.5942775    -2.9200584    -0.9078098
H           0.3875334    -1.3486713    -1.6991758
N           2.3744681    -2.0916556    -1.6811329
C           3.0079500    -2.1773431    -2.8977074
C           1.9442767    -2.5232565    -3.9429332
H           2.3294733    -3.2640456    -4.6479517
H           1.7202838    -1.6133480    -4.5148982
O           4.1991049    -1.9897593    -3.0946503
22
148_C7H13NO_7-0-16-17 (120,) energy =    -404.5737565
C           2.8751775    -0.6982597    -0.9374133
H           2.3049513     0.2351226    -0.9572085
H           3.8951283    -0.4749851    -1.2885388
C           3.6195516    -0.2876309     1.4571167
H           3.6613966    -0.7014344     2.4703531
H           3.0771175     0.6639779     1.5067493
H           4.6479132    -0.0675857     1.1448156
C           2.9406311    -1.2614911     0.4889116
H           3.4843867    -2.2158490     0.4883463
H           1.9206673    -1.4812741     0.8297902
C           1.9790417    -3.2707327    -3.5191595
H           1.7750578    -4.3420130    -3.5984871
H           2.5978033    -2.9851544    -4.3767206
C           2.7182868    -2.9161265    -2.2087185
H           3.8090903    -2.9077750    -2.3305040
H           2.4831028    -3.6288493    -1.4042646
N           2.2267101    -1.5817171    -1.8898964
C           1.0994815    -1.2180046    -2.5868904
C           0.7119396    -2.4023975    -3.4757847
H           0.3720893    -2.0495473    -4.4524624
H          -0.1315098    -2.9231830    -3.0039609
O           0.5117074    -0.1516419    -2.4861219
22
148_C7H13NO_7-0-16-17 (135,) energy =    -404.5728154
C           2.7789119    -0.6917909    -0.9155270
H           2.1374554     0.1924579    -0.8609131
H           3.7484728    -0.3692396    -1.3304408
C           3.6652901    -0.2919841     1.4293653
H           3.8315333    -0.7358710     2.4167446
H           3.0387175     0.5976785     1.5636507
H           4.6375224     0.0416586     1.0462985
C           3.0065407    -1.2942410     0.4761010
H           3.6371289    -2.1898190     0.3958319
H           2.0431021    -1.6246905     0.8858272
C           1.9726765    -3.2988477    -3.4885724
H           1.7371691    -4.3644195    -3.5561061
H           2.6569871    -3.0583522    -4.3093366
C           2.6369323    -2.9373323    -2.1389000
H           3.7329508    -2.9331033    -2.2031425
H           2.3585837    -3.6451149    -1.3447925
N           2.1325142    -1.6003494    -1.8478373
C           1.0982258    -1.2013138    -2.6603265
C           0.7364080    -2.3886288    -3.5554627
H           0.4870485    -2.0415038    -4.5609988
H          -0.1593363    -2.8713334    -3.1437432
O           0.5561823    -0.1065780    -2.6375391
22
148_C7H13NO_7-0-16-17 (150,) energy =    -404.5712626
C           2.6834382    -0.6758131    -0.8713761
H           1.9729590     0.1421048    -0.7209124
H           3.5814770    -0.2364210    -1.3378374
C           3.7060170    -0.2954109     1.4173892
H           3.9954430    -0.7653898     2.3633610
H           3.0049345     0.5155731     1.6471141
H           4.6049701     0.1567883     0.9809650
C           3.0785530    -1.3165746     0.4627999
H           3.7878593    -2.1364071     0.2900541
H           2.1893309    -1.7636701     0.9267296
C           1.9720841    -3.3119333    -3.4448551
H           1.7031915    -4.3696413    -3.5113511
H           2.7205917    -3.1123898    -4.2192801
C           2.5554441    -2.9495494    -2.0573032
H           3.6530234    -2.9646914    -2.0581938
H           2.2199135    -3.6472188    -1.2770918
N           2.0531541    -1.6025241    -1.8018277
C           1.1242134    -1.1705091    -2.7184214
C           0.7785527    -2.3598384    -3.6165451
H           0.6142468    -2.0244169    -4.6431802
H          -0.1611477    -2.8014768    -3.2604206
O           0.6453584    -0.0474942    -2.7667307
22
148_C7H13NO_7-0-16-17 (165,) energy =    -404.5694242
C           2.5972626    -0.6391543    -0.8176951
H           1.7856097     0.0331112    -0.5191719
H           3.3567186    -0.0045475    -1.3012716
C           3.7237740    -0.2835298     1.4196947
H           4.1733470    -0.7733829     2.2899504
H           2.9090950     0.3562023     1.7787313
H           4.4845992     0.3674379     0.9724684
C           3.2136817    -1.3162632     0.4088632
H           4.0441146    -1.9657641     0.1050495
H           2.4672074    -1.9633512     0.8882420
C           1.9444643    -3.3264118    -3.3850822
H           1.6056656    -4.3643447    -3.4442833
H           2.7624998    -3.2043200    -4.1032786
C           2.4472848    -2.9641505    -1.9663359
H           3.5339357    -3.0803704    -1.8808773
H           1.9882603    -3.6005961    -1.1960615
N           2.0458022    -1.5695321    -1.8009758
C           1.2024379    -1.1107815    -2.7812744
C           0.8400932    -2.2985485    -3.6743773
H           0.7787046    -1.9861474    -4.7195283
H          -0.1537445    -2.6608930    -3.3809765
O           0.7992576     0.0391165    -2.8783322
22
148_C7H13NO_7-0-16-17 (180,) energy =    -404.5699088
C           2.4992760    -0.6050741    -0.7486945
H           1.5592796    -0.3197664    -0.2501384
H           2.9215173     0.3227504    -1.1494154
C           3.7554396    -0.2518117     1.4183528
H           4.4261338    -0.7068915     2.1548944
H           2.8391904     0.0481409     1.9408262
H           4.2374320     0.6589538     1.0440192
C           3.4490761    -1.2267576     0.2763338
H           4.3851527    -1.5213239    -0.2165330
H           3.0086205    -2.1432032     0.6894527
C           1.8774517    -3.3329905    -3.2875120
H           1.4225144    -4.3262306    -3.3352830
H           2.7814148    -3.3467356    -3.9059108
C           2.2498769    -2.9368433    -1.8441130
H           3.2432202    -3.2932074    -1.5561809
H           1.5258873    -3.3442289    -1.1188561
N           2.1981505    -1.4758013    -1.8860831
C           1.3518159    -1.0121443    -2.8681552
C           0.9443829    -2.2006662    -3.7406977
H           1.0165097    -1.9466111    -4.8014117
H          -0.1097313    -2.4249016    -3.5308240
O           0.9864899     0.1477776    -2.9843183
