23
340_C9H12N2_0-6-19-17 (-165,) energy =    -459.6883535
C           1.5362651    -1.5210513     0.7177057
H           2.0298279    -1.9210150     1.6063463
C           0.6871526    -2.5543683    -0.0296860
H          -0.3129904    -2.6651991     0.4001511
H           1.1785293    -3.5343421     0.0016583
H           0.9367130    -0.6557523     1.0408263
N           2.5292068    -1.1258398    -0.2874910
C           2.0745679    -1.4066064    -1.6519075
H           2.7591195    -2.1080388    -2.1513780
H           2.0405997    -0.4937574    -2.2618179
C           0.6687371    -2.0113571    -1.4678792
H           0.4417870    -2.7734249    -2.2194829
H          -0.0873515    -1.2222899    -1.5573081
C           5.4314661     1.6421172     0.7105765
H           6.1758117     2.3606913     1.0376210
C           5.2387907     1.3434287    -0.6419818
H           5.8382971     1.8322353    -1.4062415
C           4.2738879     0.4198576    -1.0153611
H           4.1282709     0.1700614    -2.0599474
C           3.5089143    -0.2064660     0.0001341
N           3.6834416     0.0864280     1.3056606
C           4.6227410     0.9795608     1.6301845
H           4.7280131     1.1784168     2.6966772
23
340_C9H12N2_0-6-19-17 (-150,) energy =    -459.6856768
C           1.5149530    -1.3750614     0.7790506
H           1.9303135    -1.6717256     1.7431040
C           0.6949219    -2.4690081     0.0943628
H          -0.3256592    -2.5371597     0.4834255
H           1.1803260    -3.4403572     0.2434077
H           0.9172595    -0.4619876     0.9398339
N           2.5941845    -1.1369420    -0.1873684
C           2.1113252    -1.3559019    -1.5563791
H           2.8335770    -1.9648956    -2.1158305
H           1.9916960    -0.4091056    -2.1043405
C           0.7444462    -2.0626614    -1.3902444
H           0.6331880    -2.9127158    -2.0698835
H          -0.0656574    -1.3594199    -1.6134919
C           5.5488467     1.5994563     0.7767754
H           6.3116466     2.3017429     1.0967692
C           5.2467024     1.4033764    -0.5727884
H           5.7719681     1.9621957    -1.3436378
C           4.2575368     0.4987340    -0.9351022
H           4.0225793     0.3369042    -1.9803259
C           3.5935364    -0.2233718     0.0851901
N           3.8666477    -0.0190972     1.3904123
C           4.8189068     0.8613350     1.7064108
H           5.0045935     0.9857132     2.7732019
23
340_C9H12N2_0-6-19-17 (-135,) energy =    -459.6822373
C           1.4615741    -1.2462803     0.7608325
H           1.8044260    -1.4413635     1.7772895
C           0.6389332    -2.3837809     0.1487538
H          -0.4175563    -2.3289776     0.4282228
H           1.0284087    -3.3455418     0.4978883
H           0.8919255    -0.2998593     0.7670426
N           2.6083395    -1.1570485    -0.1529447
C           2.0950514    -1.3009229    -1.5165267
H           2.8729431    -1.7092917    -2.1711253
H           1.7861895    -0.3288303    -1.9396234
C           0.8647952    -2.2337628    -1.3778948
H           1.0388765    -3.2036215    -1.8528774
H          -0.0049461    -1.7867525    -1.8694744
C           5.6281280     1.5200291     0.8048148
H           6.4164068     2.1945188     1.1232431
C           5.2055421     1.4568196    -0.5231452
H           5.6545148     2.0977556    -1.2780696
C           4.1856074     0.5814907    -0.8803354
H           3.8433319     0.5315854    -1.9071332
C           3.6266992    -0.2488984     0.1155125
N           4.0125569    -0.1689021     1.4047648
C           4.9835044     0.6889127     1.7212993
H           5.2621523     0.7141539     2.7746560
23
340_C9H12N2_0-6-19-17 (-120,) energy =    -459.6787671
C           1.4217712    -1.2594821     0.6439579
H           1.7111019    -1.4996061     1.6682856
C           0.4835439    -2.2994402    -0.0024582
H          -0.5573474    -1.9642904     0.0387140
H           0.5384417    -3.2563317     0.5247434
H           0.9540111    -0.2592924     0.6481640
N           2.6075154    -1.2644415    -0.2308716
C           2.0885818    -1.3717137    -1.5934861
H           2.8878660    -1.6442652    -2.2903114
H           1.6432632    -0.4210060    -1.9441975
C           0.9971620    -2.4470443    -1.4630828
H           1.4305586    -3.4400673    -1.6155756
H           0.2070286    -2.3133317    -2.2082106
C           5.6069217     1.4252041     0.7783601
H           6.3966364     2.0923661     1.1089552
C           5.0591385     1.5119981    -0.5007093
H           5.4042172     2.2686174    -1.2011743
C           4.0427340     0.6362421    -0.8716597
H           3.5955526     0.7021933    -1.8568523
C           3.6252981    -0.3456207     0.0489170
N           4.1287890    -0.4100711     1.2964074
C           5.0884357     0.4522634     1.6344142
H           5.4671587     0.3596567     2.6520763
23
340_C9H12N2_0-6-19-17 (-105,) energy =    -459.6747035
C           1.3953907    -1.1789129     0.5937731
H           1.6185884    -1.3420696     1.6504567
C           0.4503800    -2.2351867    -0.0159955
H          -0.5800108    -1.8678347    -0.0461501
H           0.4535644    -3.1518257     0.5808100
H           0.9680531    -0.1653784     0.4867762
N           2.6244826    -1.3083897    -0.2094842
C           2.1521063    -1.4674712    -1.5858941
H           2.9681758    -1.7947401    -2.2381275
H           1.7384816    -0.5289761    -2.0028221
C           1.0243652    -2.5022624    -1.4373589
H           1.4344199    -3.5147234    -1.4983791
H           0.2733338    -2.3997365    -2.2266453
C           5.6051471     1.4199228     0.7814577
H           6.3934594     2.0920649     1.1058178
C           4.9468701     1.5962004    -0.4340863
H           5.1992161     2.4281279    -1.0870524
C           3.9388509     0.7064493    -0.7978785
H           3.4056724     0.8366407    -1.7329756
C           3.6462419    -0.3731993     0.0552260
N           4.2566194    -0.5260100     1.2441368
C           5.2048081     0.3495219     1.5833667
H           5.6746724     0.1847420     2.5526466
23
340_C9H12N2_0-6-19-17 (-90,) energy =    -459.6754710
C           1.2269750    -0.8907701     0.2952483
H           1.6243455    -1.2973777     1.2416688
C           0.2669613    -1.8994735    -0.3670671
H          -0.5601956    -1.3832054    -0.8636375
H          -0.1684510    -2.5719684     0.3784669
H           0.7605710     0.0753604     0.5150721
N           2.3082842    -0.7326858    -0.7003322
C           2.5661185    -2.1070836    -1.1651216
H           3.0940832    -2.7000780    -0.4034745
H           3.1881326    -2.0886808    -2.0655813
C           1.1490737    -2.6522337    -1.4044716
H           1.1095569    -3.7392785    -1.2843544
H           0.8186812    -2.4203322    -2.4217340
C           5.6360628     1.4359080     0.5510681
H           6.5286970     1.9583637     0.8812397
C           4.5561337     2.1205091    -0.0132160
H           4.5897052     3.1991973    -0.1432539
C           3.4477719     1.3959512    -0.4345064
H           2.5971973     1.8746363    -0.9088783
C           3.4362835     0.0032843    -0.2479308
N           4.4743953    -0.6589880     0.2792141
C           5.5447154     0.0505848     0.6612323
H           6.3711907    -0.5247095     1.0769062
23
340_C9H12N2_0-6-19-17 (-75,) energy =    -459.6782207
C           1.1765839    -0.8224536     0.2198393
H           1.4751083    -1.1745924     1.2225222
C           0.2426779    -1.8452026    -0.4581476
H          -0.5220339    -1.3389363    -1.0549829
H          -0.2763859    -2.4542433     0.2882420
H           0.7233457     0.1672372     0.3350122
N           2.3464296    -0.7658334    -0.6801980
C           2.5933635    -2.1696943    -1.0442193
H           3.0402477    -2.7304466    -0.2090647
H           3.2891164    -2.2246395    -1.8860872
C           1.1826544    -2.6883780    -1.3668402
H           1.0969273    -3.7636162    -1.1826264
H           0.9455721    -2.5147031    -2.4210854
C           5.6532844     1.4519014     0.5131982
H           6.5473941     1.9876101     0.8165131
C           4.4894647     2.1276232     0.1291056
H           4.4588058     3.2141566     0.1148431
C           3.3822947     1.3921847    -0.2674998
H           2.4729233     1.8755544    -0.6104810
C           3.4523653    -0.0148418    -0.2314462
N           4.5713299    -0.6665061     0.1133958
C           5.6390275     0.0616741     0.4709426
H           6.5295634    -0.5068231     0.7366240
23
340_C9H12N2_0-6-19-17 (-60,) energy =    -459.6814393
C           0.9977183    -0.6063316    -0.0444721
H           1.1470390    -0.2913865     0.9961507
C           0.3188464    -1.9887755    -0.1380534
H          -0.7601936    -1.9105927    -0.3032476
H           0.4711583    -2.5445504     0.7944976
H           0.3912604     0.1664350    -0.5358927
N           2.2975433    -0.7628313    -0.7501631
C           2.4958964    -2.1841033    -1.0855752
H           2.9974151    -2.7303481    -0.2742049
H           3.1263355    -2.2714565    -1.9760143
C           1.0666541    -2.6874577    -1.2850152
H           0.9951175    -3.7787141    -1.2426904
H           0.6783702    -2.3571812    -2.2560009
C           5.6387093     1.3488691     0.5100139
H           6.5447998     1.8550412     0.8275820
C           4.4749011     2.0578952     0.1888735
H           4.4573727     3.1438637     0.2375924
C           3.3507034     1.3626159    -0.2277926
H           2.4429425     1.8820252    -0.5188647
C           3.3991522    -0.0490475    -0.2713560
N           4.5225862    -0.7301259     0.0034665
C           5.6041012    -0.0355443     0.3828506
H           6.4923558    -0.6298700     0.5951092
23
340_C9H12N2_0-6-19-17 (-45,) energy =    -459.6853442
C           0.9692690    -0.5823408    -0.1857792
H           1.0362346    -0.1425700     0.8172036
C           0.3012414    -1.9701904    -0.1744883
H          -0.7763224    -1.9145209    -0.3573541
H           0.4493328    -2.4488494     0.8008909
H           0.4035156     0.1204261    -0.8141510
N           2.3154402    -0.8154370    -0.7537621
C           2.5027546    -2.2435085    -1.0596616
H           3.0010407    -2.7689416    -0.2327165
H           3.1367561    -2.3592692    -1.9438822
C           1.0706674    -2.7458927    -1.2551504
H           0.9900639    -3.8317082    -1.1454842
H           0.7043973    -2.4773874    -2.2535737
C           5.6262595     1.3414674     0.4807069
H           6.5289320     1.8589821     0.7890905
C           4.4139317     2.0188106     0.3016155
H           4.3528108     3.0930827     0.4576677
C           3.2919795     1.3143622    -0.1043041
H           2.3475073     1.8189621    -0.2812885
C           3.3990135    -0.0846413    -0.2913030
N           4.5673708    -0.7345770    -0.1496335
C           5.6394555    -0.0260563     0.2274749
H           6.5628955    -0.5952840     0.3311386
23
340_C9H12N2_0-6-19-17 (-30,) energy =    -459.6879817
C           0.9690562    -0.5649927    -0.2389017
H           0.9603150    -0.0912393     0.7513965
C           0.2624282    -1.9333112    -0.2367777
H          -0.7977760    -1.8551206    -0.4962264
H           0.3292096    -2.3847656     0.7603143
H           0.4839792     0.1316910    -0.9388743
N           2.3425151    -0.8649870    -0.6691667
C           2.5151269    -2.2916110    -0.9729322
H           2.9657247    -2.8272562    -0.1244817
H           3.1867676    -2.4203263    -1.8264607
C           1.0816760    -2.7614275    -1.2396470
H           0.9635407    -3.8408875    -1.1049542
H           0.7875596    -2.5149630    -2.2672276
C           5.6416664     1.3688538     0.4272566
H           6.5446187     1.9049921     0.7006214
C           4.3955678     2.0038612     0.3718833
H           4.3057805     3.0641189     0.5957959
C           3.2705744     1.2789631     0.0118632
H           2.3005550     1.7588785    -0.0628506
C           3.4166388    -0.1018456    -0.2698408
N           4.6161681    -0.7142110    -0.2368120
C           5.6842406     0.0161851     0.1032111
H           6.6319252    -0.5218775     0.1171006
23
340_C9H12N2_0-6-19-17 (-15,) energy =    -459.6891978
C           0.9672913    -0.5713659    -0.2492363
H           0.8713451    -0.0792706     0.7277391
C           0.2235430    -1.9183738    -0.2943840
H          -0.8110391    -1.8118892    -0.6343307
H           0.2015486    -2.3632419     0.7076461
H           0.5788838     0.1272934    -1.0068987
N           2.3575827    -0.9297749    -0.5273373
C           2.5195482    -2.3442636    -0.8746768
H           2.9200224    -2.9166239    -0.0246978
H           3.2290159    -2.4577168    -1.6991056
C           1.0912474    -2.7764129    -1.2300945
H           0.9340610    -3.8509945    -1.0965301
H           0.8743645    -2.5324982    -2.2772627
C           5.6551274     1.3904825     0.3534048
H           6.5595905     1.9483508     0.5726319
C           4.3906354     1.9878803     0.4034339
H           4.2864085     3.0392505     0.6607577
C           3.2616255     1.2378052     0.1138533
H           2.2768139     1.6914908     0.1287068
C           3.4269730    -0.1307715    -0.2173286
N           4.6437860    -0.7103014    -0.2761015
C           5.7115240     0.0446988     0.0020761
H           6.6722498    -0.4664526    -0.0591766
23
340_C9H12N2_0-6-19-17 (0,) energy =    -459.6893993
C           0.9631012    -0.5607913    -0.2292019
H           0.7687649    -0.0558333     0.7260097
C           0.1812522    -1.8782462    -0.3567479
H          -0.8206248    -1.7297735    -0.7707401
H           0.0708507    -2.3405518     0.6314724
H           0.6963338     0.1445600    -1.0335287
N           2.3566581    -0.9808949    -0.3341037
C           2.5050435    -2.3709642    -0.7754581
H           2.8417187    -3.0095016     0.0542916
H           3.2601009    -2.4457011    -1.5628376
C           1.0908522    -2.7432066    -1.2451578
H           0.8879890    -3.8146270    -1.1548166
H           0.9610774    -2.4655242    -2.2983826
C           5.6619377     1.4139767     0.2741992
H           6.5687699     1.9903361     0.4250558
C           4.3926165     1.9870865     0.4101732
H           4.2861665     3.0376407     0.6699927
C           3.2603005     1.2135322     0.2086431
H           2.2713597     1.6482911     0.3002656
C           3.4278591    -0.1534196    -0.1299098
N           4.6491929    -0.7115361    -0.2647904
C           5.7186361     0.0655703    -0.0670093
H           6.6821929    -0.4291000    -0.1891318
23
340_C9H12N2_0-6-19-17 (15,) energy =    -459.6891980
C           1.1045394    -0.5264223     0.0184556
H           0.8099260    -0.4294295     1.0752492
C           0.4005916    -1.7195425    -0.6529126
H           0.2485393    -1.5088515    -1.7182338
H          -0.5787487    -1.9275454    -0.2114430
H           0.8659213     0.4250252    -0.4751893
N           2.5267382    -0.8443995    -0.1042165
C           2.7625794    -2.1778621    -0.6641090
H           3.5816930    -2.6754021    -0.1374771
H           3.0521219    -2.1161386    -1.7237950
C           1.4059691    -2.8709191    -0.4842972
H           1.3308722    -3.2945270     0.5246460
H           1.2530813    -3.6830502    -1.2014729
C           5.6245990     1.8652344     0.2062755
H           6.4792341     2.5313401     0.2634659
C           4.3529588     2.2576598     0.6391587
H           4.1934756     3.2503344     1.0533844
C           3.2898505     1.3728806     0.5489356
H           2.3029850     1.6551639     0.8986991
C           3.5273245     0.0859302     0.0036283
N           4.7523017    -0.3017980    -0.4072364
C           5.7560392     0.5747745    -0.2986819
H           6.7263758     0.2165030    -0.6422935
23
340_C9H12N2_0-6-19-17 (30,) energy =    -459.6879815
C           1.1059098    -0.5238280     0.0121250
H           0.7053963    -0.4098316     1.0305649
C           0.4353977    -1.7010336    -0.7203670
H           0.3758751    -1.4857418    -1.7939426
H          -0.5811634    -1.8901007    -0.3621602
H           0.9524635     0.4307262    -0.5077808
N           2.5311203    -0.8825670     0.0493247
C           2.7747242    -2.1983384    -0.5556696
H           3.5580354    -2.7300408    -0.0080467
H           3.1182735    -2.1006198    -1.5959864
C           1.4010067    -2.8721660    -0.4767738
H           1.2429907    -3.2948817     0.5229195
H           1.2894354    -3.6802081    -1.2061310
C           5.5995933     1.8840220     0.1317281
H           6.4445421     2.5648858     0.1320329
C           4.3596445     2.2483078     0.6694868
H           4.2173307     3.2307971     1.1130665
C           3.3105548     1.3429470     0.6517039
H           2.3498448     1.5958454     1.0874830
C           3.5238087     0.0719466     0.0631145
N           4.7199278    -0.2912501    -0.4386028
C           5.7154042     0.6017373    -0.3960083
H           6.6633704     0.2636649    -0.8141342
23
340_C9H12N2_0-6-19-17 (45,) energy =    -459.6853442
C           1.0982299    -0.4979533    -0.0416463
H           0.6105752    -0.3371991     0.9305113
C           0.4614583    -1.6863156    -0.7868626
H           0.4798303    -1.5033739    -1.8678641
H          -0.5805820    -1.8497699    -0.4951337
H           1.0188025     0.4397767    -0.6058362
N           2.5136597    -0.8850107     0.1476257
C           2.7698489    -2.2032577    -0.4559392
H           3.5233319    -2.7434626     0.1250781
H           3.1577750    -2.1073856    -1.4799773
C           1.3890974    -2.8625746    -0.4438355
H           1.1604838    -3.2520656     0.5557160
H           1.3151297    -3.6908175    -1.1552180
C           5.5805080     1.8948073     0.0792241
H           6.4219590     2.5791580     0.0422658
C           4.3903307     2.2262333     0.7381823
H           4.2865459     3.1831904     1.2437619
C           3.3488117     1.3128774     0.7666444
H           2.4271715     1.5309683     1.2967215
C           3.5089151     0.0785965     0.0924750
N           4.6600034    -0.2562204    -0.5161510
C           5.6559711     0.6391182    -0.5140607
H           6.5680585     0.3246069    -1.0206992
23
340_C9H12N2_0-6-19-17 (60,) energy =    -459.6814398
C           1.1036956    -0.4407603    -0.1793276
H           0.5551441    -0.1517950     0.7273214
C           0.4701824    -1.6827642    -0.8404876
H           0.5029920    -1.5836632    -1.9317347
H          -0.5771086    -1.8170358    -0.5526145
H           1.1041433     0.4270600    -0.8511251
N           2.4900667    -0.8506437     0.1697810
C           2.7600378    -2.1788680    -0.4086811
H           3.5082003    -2.7021512     0.1949513
H           3.1559796    -2.1075155    -1.4316248
C           1.3815894    -2.8388884    -0.3980759
H           1.1238745    -3.1664533     0.6162887
H           1.3259079    -3.7077205    -1.0612330
C           5.5868521     1.9074822     0.0552007
H           6.4312528     2.5875640     0.0048436
C           4.4637004     2.1876009     0.8428299
H           4.4182776     3.0957822     1.4387766
C           3.4204158     1.2761847     0.8843387
H           2.5505359     1.4440027     1.5117801
C           3.5021658     0.1094415     0.0912128
N           4.5910347    -0.1784723    -0.6388350
C           5.5971158     0.7068491    -0.6464731
H           6.4598471     0.4309829    -1.2521658
23
340_C9H12N2_0-6-19-17 (75,) energy =    -459.6782218
C           1.2477119    -0.4818310    -0.5864720
H           0.7610835     0.3430922    -0.0564901
C           0.4220406    -1.7835166    -0.5763106
H          -0.1715903    -1.8771435    -1.4908124
H          -0.2745776    -1.7951635     0.2674401
H           1.4385188    -0.1506683    -1.6220556
N           2.5103965    -0.8640305     0.0778467
C           2.8322776    -2.1855353    -0.4832455
H           3.6170022    -2.6652510     0.1083693
H           3.2008840    -2.1055752    -1.5172394
C           1.4797130    -2.9154050    -0.4330734
H           1.3581826    -3.4288614     0.5257368
H           1.4010638    -3.6692579    -1.2223626
C           5.6046298     1.9102723     0.1787042
H           6.4447908     2.5976701     0.1835196
C           4.4762341     2.1269878     0.9779001
H           4.4214222     2.9903472     1.6361611
C           3.4401202     1.2055831     0.9459565
H           2.5643664     1.3143049     1.5780058
C           3.5395615     0.1000817     0.0773078
N           4.6271367    -0.1240013    -0.6724673
C           5.6289843     0.7653479    -0.6104895
H           6.4965793     0.5413689    -1.2300999
23
340_C9H12N2_0-6-19-17 (90,) energy =    -459.6754741
C           1.2882468    -0.4776036    -0.6881870
H           0.7783958     0.3913265    -0.2589324
C           0.4350861    -1.7611147    -0.6696224
H          -0.0837191    -1.9010900    -1.6229775
H          -0.3277644    -1.7096084     0.1131589
H           1.5817332    -0.2213085    -1.7213067
N           2.4737740    -0.8373376     0.1179826
C           2.8187161    -2.1932166    -0.3450732
H           3.5379199    -2.6523864     0.3404876
H           3.2731798    -2.1752996    -1.3467930
C           1.4531621    -2.8995863    -0.3713514
H           1.2393181    -3.3544286     0.6007963
H           1.4275573    -3.6966456    -1.1208146
C           5.5771527     1.9397312     0.1377542
H           6.4116894     2.6337577     0.1123870
C           4.5533072     2.0633198     1.0810471
H           4.5743822     2.8583796     1.8220206
C           3.5203376     1.1338676     1.0766888
H           2.7189365     1.1649476     1.8077389
C           3.5225167     0.1211749     0.1025576
N           4.5086631    -0.0099869    -0.7943583
C           5.5088018     0.8809803    -0.7644533
H           6.2955571     0.7355536    -1.5038303
23
340_C9H12N2_0-6-19-17 (105,) energy =    -459.6747037
C           1.9519212    -1.9256750     0.5828293
H           2.8629265    -2.5465606     0.5087639
C           0.7423523    -2.6579813    -0.0369490
H          -0.1639115    -2.4854172     0.5506741
H           0.9132556    -3.7385841    -0.0640056
H           1.8138670    -1.6524722     1.6313415
N           2.0860042    -0.7114447    -0.2426028
C           1.8491066    -1.1656363    -1.6138005
H           2.6855067    -1.7733391    -2.0100302
H           1.7062678    -0.3115345    -2.2835810
C           0.6008495    -2.0492391    -1.4614109
H           0.5408880    -2.8091825    -2.2465506
H          -0.3014154    -1.4335848    -1.5240281
C           5.3545687     1.6663231     0.7434092
H           6.1698260     2.3064943     1.0658554
C           5.4069328     0.9630611    -0.4585355
H           6.2807914     1.0275520    -1.1022371
C           4.3340505     0.1516558    -0.8200366
H           4.3634323    -0.4147512    -1.7441643
C           3.2070770     0.1023849     0.0205377
N           3.1681233     0.7532865     1.1970164
C           4.2151816     1.5085552     1.5345804
H           4.1384313     2.0203774     2.4935171
23
340_C9H12N2_0-6-19-17 (120,) energy =    -459.6787685
C           1.8775249    -1.8825691     0.6365337
H           2.7650179    -2.5381122     0.6741355
C           0.6850433    -2.6127965    -0.0170623
H          -0.2498173    -2.3812012     0.5015659
H           0.8218626    -3.6975683     0.0286963
H           1.6789452    -1.5284739     1.6493960
N           2.1259657    -0.7384417    -0.2588341
C           1.9282985    -1.2490463    -1.6143656
H           2.7684953    -1.8898410    -1.9441697
H           1.8360609    -0.4237716    -2.3278967
C           0.6476523    -2.0880591    -1.4802335
H           0.6096015    -2.8923026    -2.2212921
H          -0.2305533    -1.4537734    -1.6342869
C           5.3634004     1.6627103     0.7408229
H           6.1753548     2.3044862     1.0677378
C           5.3502985     1.0842818    -0.5276278
H           6.1694412     1.2523830    -1.2225943
C           4.2882944     0.2627714    -0.8946457
H           4.2721422    -0.2074589    -1.8711553
C           3.2310485     0.0741539     0.0177908
N           3.2575608     0.6039099     1.2557543
C           4.2950796     1.3721004     1.5908422
H           4.2710214     1.7812757     2.6006261
23
340_C9H12N2_0-6-19-17 (135,) energy =    -459.6833297
C           1.5810397    -1.5807945     0.6991522
H           2.4004677    -1.9791259     1.3087175
C           0.8714422    -2.6703953    -0.1296635
H          -0.0380124    -3.0357105     0.3568676
H           1.5372108    -3.5301137    -0.2720640
H           0.8918641    -1.0724563     1.3826868
N           2.0950541    -0.6230146    -0.3072345
C           1.8565438    -1.1296389    -1.6588727
H           2.6924244    -1.7507630    -2.0295236
H           1.7216703    -0.3001422    -2.3624654
C           0.6051679    -1.9928266    -1.4842692
H           0.4648039    -2.7030183    -2.3049121
H          -0.2840249    -1.3541828    -1.4279218
C           5.4807590     1.5243704     0.7337850
H           6.3386668     2.0960266     1.0728378
C           5.4037147     1.0117537    -0.5627700
H           6.2191408     1.1621694    -1.2662187
C           4.2871427     0.2800992    -0.9482553
H           4.2224013    -0.1339711    -1.9478197
C           3.2359483     0.1098732    -0.0193925
N           3.3236019     0.5701758     1.2449399
C           4.4150052     1.2565950     1.5916134
H           4.4376666     1.6117141     2.6217830
23
340_C9H12N2_0-6-19-17 (150,) energy =    -459.6870359
C           1.4916747    -1.5224100     0.6901476
H           2.2287431    -1.8845908     1.4141508
C           0.8299861    -2.6514953    -0.1197452
H          -0.1013141    -3.0006040     0.3364592
H           1.5074197    -3.5112747    -0.1908753
H           0.7525354    -0.9382743     1.2527403
N           2.1411064    -0.6784734    -0.3313798
C           1.8964408    -1.1860225    -1.6804786
H           2.7325203    -1.8101403    -2.0426458
H           1.7697430    -0.3601123    -2.3906800
C           0.6297253    -2.0316029    -1.5121527
H           0.5133796    -2.7740137    -2.3075332
H          -0.2551843    -1.3842082    -1.5191695
C           5.4788830     1.5149402     0.7380393
H           6.3289555     2.0946940     1.0826700
C           5.3563228     1.1065035    -0.5932416
H           6.1262826     1.3539899    -1.3201169
C           4.2533766     0.3625052    -0.9877943
H           4.1524900     0.0311270    -2.0149111
C           3.2623507     0.0597621    -0.0230461
N           3.3887467     0.4288652     1.2681479
C           4.4675165     1.1353369     1.6174200
H           4.5235249     1.4121019     2.6701310
23
340_C9H12N2_0-6-19-17 (165,) energy =    -459.6890054
C           1.5073718    -1.4901009     0.7112080
H           2.1724702    -1.8563641     1.4988228
C           0.8058335    -2.6141834    -0.0685513
H          -0.1512482    -2.8990840     0.3788177
H           1.4418974    -3.5075809    -0.0925651
H           0.7860852    -0.8135965     1.1901481
N           2.2732876    -0.7811711    -0.3223889
C           1.9736770    -1.2553062    -1.6698380
H           2.7737778    -1.9101341    -2.0555742
H           1.8694149    -0.4173477    -2.3704821
C           0.6639070    -2.0348269    -1.4858771
H           0.5200469    -2.7973716    -2.2572496
H          -0.1878962    -1.3456143    -1.5295055
C           5.5162464     1.5523235     0.7172231
H           6.3457214     2.1661387     1.0526971
C           5.3520386     1.2065957    -0.6284288
H           6.0658291     1.5440175    -1.3761699
C           4.2777415     0.4189781    -1.0127769
H           4.1451162     0.1348074    -2.0505634
C           3.3618313    -0.0053916    -0.0175957
N           3.5216090     0.3141461     1.2835541
C           4.5718332     1.0696732     1.6192113
H           4.6586730     1.3013322     2.6807247
23
340_C9H12N2_0-6-19-17 (180,) energy =    -459.6893929
C           1.5310899    -1.5178619     0.7286125
H           2.1132465    -1.9175528     1.5633248
C           0.7404844    -2.5888855    -0.0356751
H          -0.2408430    -2.7808487     0.4086557
H           1.2973367    -3.5338415    -0.0404485
H           0.8724063    -0.7384771     1.1399106
N           2.4170737    -0.9641373    -0.2983949
C           2.0221023    -1.3353319    -1.6540031
H           2.7550450    -2.0217021    -2.1078001
H           1.9532210    -0.4542956    -2.3057390
C           0.6563104    -2.0171078    -1.4608724
H           0.4578264    -2.7754398    -2.2242335
H          -0.1427647    -1.2683143    -1.5177960
C           5.4815409     1.6064830     0.7187423
H           6.2668298     2.2780316     1.0499051
C           5.3106531     1.2783105    -0.6307887
H           5.9730327     1.6929970    -1.3869393
C           4.2935283     0.4159525    -1.0090152
H           4.1592574     0.1428665    -2.0496201
C           3.4454365    -0.1106568    -0.0016799
N           3.6056466     0.2008525     1.3016099
C           4.5996393     1.0321848     1.6298350
H           4.6904322     1.2516291     2.6936204
