22
243_C8H10N2O2_1-0-3-11 (-165,) energy =    -570.8360765
N           1.7412922    -1.5485730     0.5153153
C           1.2089102    -2.8861767     0.7525778
H           2.0342774    -3.5941307     0.8102270
C           3.0121884    -1.4464201     0.0186576
H           0.5349198    -3.1976344    -0.0570100
C           5.4223778     2.0985206    -0.0109674
H           6.0956442     2.9468373    -0.0633475
H           0.6472334    -2.8868221     1.6936105
C           5.6404638     1.0413394    -0.9896118
N           4.7285177    -0.0224550    -0.8548230
H           4.8883031    -0.8361440    -1.4433020
C           3.7310192    -0.1205439     0.0734306
C           3.5654095     0.8827519     0.9922802
H           2.8139942     0.8083630     1.7667772
C           4.4428204     2.0070898     0.9341923
H           4.3222675     2.8022454     1.6660219
O           3.6350621    -2.4174701    -0.4133001
C           0.7693083    -0.4660255     0.6038633
H           0.4866570    -0.2624576     1.6453947
H          -0.1379124    -0.7518792     0.0562728
H           1.1647991     0.4453941     0.1583246
O           6.5082324     1.0158421    -1.8546484
22
243_C8H10N2O2_1-0-3-11 (-150,) energy =    -570.8335419
N           1.6926489    -1.5552626     0.3659577
C           1.2577653    -2.8637666     0.8395928
H           2.0886594    -3.5633700     0.7595850
C           2.9531963    -1.4327763    -0.1576285
H           0.4179627    -3.2455882     0.2443390
C           5.4255081     2.0636013     0.0296983
H           6.1156382     2.8998838     0.0331581
H           0.9328794    -2.7829716     1.8848940
C           5.6514259     1.0470657    -0.9898232
N           4.7164697    -0.0027155    -0.9279844
H           4.8755198    -0.7918870    -1.5492190
C           3.6927068    -0.1234836    -0.0312355
C           3.5182611     0.8421043     0.9253050
H           2.7411824     0.7517495     1.6717701
C           4.4178084     1.9502689     0.9422385
H           4.2905245     2.7150002     1.7047168
O           3.5694143    -2.3898104    -0.6272618
C           0.7249051    -0.4785376     0.5125615
H           0.5294244    -0.2430014     1.5683944
H          -0.2242518    -0.7866584     0.0556058
H           1.0729938     0.4211245     0.0062086
O           6.5426441     1.0439459    -1.8310156
22
243_C8H10N2O2_1-0-3-11 (-135,) energy =    -570.8289603
N           1.6517258    -1.6029472     0.2304908
C           1.3440401    -2.8512589     0.9191958
H           2.1411276    -3.5686837     0.7264714
C           2.9051248    -1.4429498    -0.3156116
H           0.3970928    -3.2748296     0.5623894
C           5.4274243     2.0018000     0.0697190
H           6.1306767     2.8253200     0.1240818
H           1.2569211    -2.6691196     1.9997288
C           5.6647765     1.0203463    -0.9815828
N           4.7103396    -0.0129024    -0.9865028
H           4.8710726    -0.7804357    -1.6340380
C           3.6609532    -0.1514184    -0.1217906
C           3.4748814     0.7819243     0.8641141
H           2.6728741     0.6824023     1.5818045
C           4.3922658     1.8722666     0.9485842
H           4.2551469     2.6103691     1.7351843
O           3.5132155    -2.3779697    -0.8343796
C           0.6906182    -0.5302046     0.4342859
H           0.5817950    -0.2608181     1.4955655
H          -0.2912711    -0.8606642     0.0722927
H           0.9822836     0.3561086    -0.1294872
O           6.5799065     1.0333099    -1.7964206
22
243_C8H10N2O2_1-0-3-11 (-120,) energy =    -570.8230687
N           1.6036623    -1.6472555     0.1382037
C           1.4357507    -2.7993917     1.0191074
H           2.1921968    -3.5466903     0.7783046
C           2.8521657    -1.4472820    -0.4311042
H           0.4456840    -3.2490851     0.8802078
C           5.4278555     1.9298667     0.1471961
H           6.1442427     2.7372061     0.2507301
H           1.5350212    -2.4956580     2.0722921
C           5.6692407     0.9904230    -0.9415657
N           4.6983559    -0.0245818    -1.0091235
H           4.8556006    -0.7643020    -1.6890421
C           3.6283351    -0.1799596    -0.1725371
C           3.4363102     0.7158090     0.8465679
H           2.6129972     0.6060722     1.5376115
C           4.3713223     1.7838139     0.9974614
H           4.2296458     2.4912761     1.8109071
O           3.4420655    -2.3550125    -1.0109089
C           0.6482018    -0.5690825     0.3507654
H           0.5900653    -0.2508105     1.4031555
H          -0.3493669    -0.9180542     0.0554982
H           0.9040069     0.2932314    -0.2664716
O           6.6003390     1.0235433    -1.7373485
22
243_C8H10N2O2_1-0-3-11 (-105,) energy =    -570.8197846
N           1.5479913    -1.0387189     0.5927778
C           1.7101674    -2.3240218     1.2983619
H           2.7200777    -2.3931456     1.7154046
C           2.5442401    -0.9033836    -0.4317709
H           1.5402812    -3.1872664     0.6362016
C           5.8340863     1.7326165     0.1908080
H           6.6942086     2.3865403     0.2839141
H           0.9951840    -2.3633239     2.1257407
C           5.7611565     0.9448738    -1.0376088
N           4.6249524     0.1212872    -1.0886719
H           4.5006383    -0.4424666    -1.9252624
C           3.6567941     0.0350320    -0.1247980
C           3.7496986     0.7904279     1.0143125
H           2.9691968     0.7228916     1.7595893
C           4.8754516     1.6547689     1.1592049
H           4.9625392     2.2611142     2.0573280
O           2.4699308    -1.4339203    -1.5281547
C           0.1939081    -0.9432479     0.0185661
H          -0.5251604    -0.9579237     0.8433253
H          -0.0375694    -1.7633626    -0.6756419
H           0.0888372     0.0066355    -0.5130502
O           6.5734048     0.9611157    -1.9546546
22
243_C8H10N2O2_1-0-3-11 (-90,) energy =    -570.8242575
N           1.4858329    -0.9820149     0.5155731
C           1.7842411    -2.1577323     1.3561882
H           2.8089897    -2.0970270     1.7340335
C           2.4514838    -0.7912896    -0.5069691
H           1.6676532    -3.0984287     0.7965251
C           5.8739515     1.6498261     0.2317688
H           6.7635169     2.2588006     0.3491589
H           1.1014621    -2.1678940     2.2110871
C           5.7506004     0.9355435    -1.0354596
N           4.5779084     0.1650821    -1.1137380
H           4.4105265    -0.3325244    -1.9842375
C           3.6159212     0.0712885    -0.1461774
C           3.7543481     0.7621454     1.0285420
H           2.9760285     0.7057055     1.7773114
C           4.9205722     1.5647773     1.2048418
H           5.0423781     2.1199424     2.1316581
O           2.2988203    -1.1521975    -1.6647798
C           0.1249749    -1.0891585    -0.0361377
H          -0.5788853    -1.0887208     0.8016515
H          -0.0240809    -2.0007093    -0.6309931
H          -0.0817572    -0.2241998    -0.6702983
O           6.5487766     0.9659476    -1.9645977
22
243_C8H10N2O2_1-0-3-11 (-75,) energy =    -570.8293622
N           1.4419679    -0.9732592     0.4426222
C           1.8301364    -2.0230020     1.4005862
H           2.8620324    -1.8747716     1.7262332
C           2.3786194    -0.6918575    -0.5619125
H           1.7413076    -3.0238109     0.9520998
C           5.9005930     1.5788709     0.2821653
H           6.8108110     2.1518086     0.4203135
H           1.1777336    -1.9731888     2.2778293
C           5.7454708     0.9242651    -1.0122265
N           4.5454179     0.1977962    -1.1140363
H           4.3467354    -0.2373703    -2.0111910
C           3.5840383     0.0973687    -0.1480245
C           3.7512885     0.7363090     1.0519934
H           2.9755740     0.6872680     1.8043348
C           4.9460736     1.4894920     1.2537188
H           5.0887342     2.0045994     2.2005371
O           2.1763664    -0.8964842    -1.7524936
C           0.0924979    -1.2169650    -0.0832892
H          -0.6038561    -1.2239098     0.7606147
H           0.0160717    -2.1729021    -0.6196977
H          -0.1832291    -0.4151852    -0.7701574
O           6.5360616     0.9670063    -1.9474644
22
243_C8H10N2O2_1-0-3-11 (-60,) energy =    -570.8333063
N           1.4285395    -0.9912699     0.3641618
C           1.8729479    -1.9155602     1.4162341
H           2.9147699    -1.7267573     1.6759298
C           2.3288893    -0.5970438    -0.6153185
H           1.7781463    -2.9588817     1.0812617
C           5.9402723     1.5175810     0.2817162
H           6.8697339     2.0566630     0.4273690
H           1.2572467    -1.7816608     2.3117639
C           5.7520650     0.9052448    -1.0279269
N           4.5267879     0.2218512    -1.1383336
H           4.2994428    -0.1658501    -2.0504133
C           3.5707887     0.1228628    -0.1676290
C           3.7692571     0.7257396     1.0464334
H           3.0002047     0.6894266     1.8066212
C           4.9890884     1.4353052     1.2570205
H           5.1538881     1.9220025     2.2152700
O           2.0872058    -0.6669466    -1.8165567
C           0.0948545    -1.3263319    -0.1415216
H          -0.5964930    -1.3524544     0.7061427
H           0.0768799    -2.3015759    -0.6477887
H          -0.2285689    -0.5656399    -0.8525478
O           6.5333121     0.9480342    -1.9710785
22
243_C8H10N2O2_1-0-3-11 (-45,) energy =    -570.8355119
N           1.4250780    -1.0338894     0.2976453
C           1.8809486    -1.8353222     1.4353902
H           2.9382783    -1.6624308     1.6297976
C           2.2902638    -0.5232006    -0.6436211
H           1.7365130    -2.9044448     1.2248446
C           5.9738856     1.4581353     0.2814866
H           6.9186876     1.9690420     0.4298082
H           1.3084219    -1.5820373     2.3350363
C           5.7542936     0.8832958    -1.0395547
N           4.5084640     0.2374653    -1.1524300
H           4.2559206    -0.1080441    -2.0747794
C           3.5606359     0.1371298    -0.1740978
C           3.7894678     0.7065479     1.0510512
H           3.0309538     0.6771346     1.8221936
C           5.0298464     1.3793010     1.2637038
H           5.2163707     1.8400396     2.2307916
O           2.0195005    -0.4799164    -1.8422706
C           0.1040015    -1.4177859    -0.1979695
H          -0.5917170    -1.4373755     0.6465683
H           0.1183028    -2.4101504    -0.6699075
H          -0.2334226    -0.6912199    -0.9366271
O           6.5247795     0.9276206    -1.9915200
22
243_C8H10N2O2_1-0-3-11 (-30,) energy =    -570.8363263
N           1.4176842    -1.1196722     0.2597363
C           1.8483287    -1.7921976     1.4822630
H           2.9217467    -1.6840723     1.6266777
C           2.2509019    -0.5045803    -0.6369204
H           1.6163855    -2.8629261     1.4097381
C           5.9858735     1.3777208     0.3017093
H           6.9418487     1.8674556     0.4497985
H           1.3269453    -1.3895295     2.3599018
C           5.7368492     0.8405864    -1.0295438
N           4.4764974     0.2231024    -1.1411994
H           4.2018507    -0.0855807    -2.0702479
C           3.5401667     0.1120855    -0.1528194
C           3.7978976     0.6465769     1.0826166
H           3.0528631     0.6147520     1.8664983
C           5.0531351     1.2922158     1.2937806
H           5.2603526     1.7258907     2.2691573
O           1.9643018    -0.3769280    -1.8277878
C           0.1017124    -1.5233772    -0.2281241
H          -0.6170381    -1.4593614     0.5955366
H           0.1142182    -2.5552034    -0.6055046
H          -0.2013192    -0.8614602    -1.0380043
O           6.4944269     0.8938244    -1.9914025
22
243_C8H10N2O2_1-0-3-11 (-15,) energy =    -570.8361918
N           1.5022110    -1.1493277     0.2167246
C           1.9078422    -1.7117539     1.4985178
H           2.9879095    -1.6557871     1.6236255
C           2.2797615    -0.4093199    -0.6297787
H           1.6130015    -2.7674755     1.5301814
C           6.0382842     1.4373824     0.2982510
H           6.9970581     1.9233097     0.4405960
H           1.4210044    -1.1990747     2.3392701
C           5.7520985     0.9574532    -1.0469527
N           4.4899213     0.3422221    -1.1495700
H           4.1874568     0.0804369    -2.0842844
C           3.5804935     0.1846456    -0.1418941
C           3.8732572     0.6675513     1.1072725
H           3.1538239     0.6038786     1.9123182
C           5.1329174     1.3077178     1.3103017
H           5.3655759     1.7005640     2.2971916
O           1.9637762    -0.1951867    -1.8018049
C           0.1870687    -1.5704530    -0.2570402
H          -0.5599861    -1.3853748     0.5235809
H           0.1842443    -2.6421087    -0.4962044
H          -0.0642228    -1.0067029    -1.1535589
O           6.4812660     1.0547065    -2.0272051
22
243_C8H10N2O2_1-0-3-11 (0,) energy =    -570.8353387
N           1.5744462    -1.2374883     0.2129478
C           1.9316610    -1.6775459     1.5543676
H           3.0104917    -1.6454325     1.7002791
C           2.2892673    -0.3922770    -0.5901099
H           1.6010522    -2.7144427     1.6779489
C           6.0702857     1.4442734     0.2803185
H           7.0318884     1.9292464     0.4057803
H           1.4427287    -1.0723909     2.3308496
C           5.7417770     1.0004448    -1.0672390
N           4.4778155     0.3854856    -1.1464760
H           4.1463795     0.1519932    -2.0787214
C           3.6004851     0.1943187    -0.1156164
C           3.9332227     0.6449879     1.1360353
H           3.2424516     0.5615809     1.9633770
C           5.1971578     1.2842322     1.3157138
H           5.4592214     1.6510837     2.3052432
O           1.9397676    -0.1222203    -1.7412823
C           0.2670221    -1.6875469    -0.2583844
H          -0.5207207    -1.3529718     0.4288432
H           0.2429493    -2.7828376    -0.3087565
H           0.0899490    -1.2732834    -1.2489009
O           6.4384195     1.1262830    -2.0677220
22
243_C8H10N2O2_1-0-3-11 (15,) energy =    -570.8361915
N           1.7016017    -1.1884226     0.1781537
C           1.5227248    -0.7849415     1.5670822
H           1.8055064    -1.5868050     2.2626656
C           2.6491388    -0.7206427    -0.6893121
H           0.4643496    -0.5512213     1.7333380
C           6.1643489     1.5197394     0.3204744
H           7.0654963     2.1003246     0.4832491
H           2.1079821     0.1050873     1.7920596
C           5.4893471     1.7209257    -0.9545811
N           4.3331366     0.9293069    -1.0904158
H           3.8747295     0.9475761    -1.9976707
C           3.8410865     0.0482712    -0.1691731
C           4.5122375    -0.1314014     1.0126193
H           4.1774545    -0.8593486     1.7390741
C           5.6996186     0.6272816     1.2414807
H           6.2406702     0.4813003     2.1733307
O           2.5789346    -0.9015844    -1.9065585
C           0.6550986    -2.0545167    -0.3567167
H          -0.3006277    -1.5174568    -0.4182800
H           0.5258085    -2.9221704     0.3007422
H           0.9420261    -2.3827651    -1.3540178
O           5.8411444     2.4730429    -1.8560541
22
243_C8H10N2O2_1-0-3-11 (30,) energy =    -570.8363250
N           1.7686007    -1.2514564     0.2163591
C           1.5001716    -0.7394040     1.5570122
H           1.6553258    -1.5172082     2.3154519
C           2.6404334    -0.6921791    -0.6803110
H           0.4551724    -0.4077498     1.6180486
C           6.1951546     1.4872509     0.3129962
H           7.1047965     2.0546725     0.4749916
H           2.1420329     0.1100002     1.7833800
C           5.4952684     1.7364298    -0.9402939
N           4.3272115     0.9619375    -1.0759540
H           3.8474650     1.0150618    -1.9708723
C           3.8513988     0.0525617    -0.1745469
C           4.5455342    -0.1734737     0.9854619
H           4.2144613    -0.9226522     1.6924020
C           5.7430998     0.5683240     1.2145713
H           6.3032972     0.3874122     2.1288090
O           2.5131395    -0.8225877    -1.8980881
C           0.7283510    -2.1219741    -0.3244188
H          -0.1912128    -1.5603340    -0.5396234
H           0.4997362    -2.9010753     0.4104096
H           1.0823527    -2.5755131    -1.2489767
O           5.8357215     2.5139128    -1.8242921
22
243_C8H10N2O2_1-0-3-11 (45,) energy =    -570.8355119
N           1.7858299    -1.3035372     0.2502335
C           1.4168761    -0.7206741     1.5420188
H           1.4369735    -1.4860665     2.3262853
C           2.5677257    -0.6383594    -0.6671056
H           0.4001692    -0.3059911     1.4914138
C           6.1740124     1.4611074     0.3010863
H           7.0933254     2.0131633     0.4616263
H           2.1024420     0.0805678     1.8133907
C           5.4488931     1.7629082    -0.9264838
N           4.2682839     1.0080011    -1.0614358
H           3.7618268     1.1064432    -1.9376174
C           3.8050660     0.0714111    -0.1817743
C           4.5213681    -0.2038181     0.9534575
H           4.1937127    -0.9753632     1.6377304
C           5.7316416     0.5170031     1.1815142
H           6.3097282     0.2995396     2.0764196
O           2.3645482    -0.6930539    -1.8785809
C           0.7609829    -2.1832981    -0.3100836
H          -0.1349688    -1.6238435    -0.6133967
H           0.4791960    -2.9173383     0.4511213
H           1.1590532    -2.6949500    -1.1859385
O           5.7790334     2.5679953    -1.7894393
22
243_C8H10N2O2_1-0-3-11 (60,) energy =    -570.8333064
N           1.8304927    -1.3317923     0.3091144
C           1.3417074    -0.6865584     1.5352470
H           1.2366768    -1.4323241     2.3300989
C           2.5252039    -0.5748516    -0.6235357
H           0.3605338    -0.2202061     1.3634067
C           6.2091935     1.4038286     0.2884016
H           7.1451878     1.9297158     0.4403329
H           2.0394222     0.0827649     1.8666412
C           5.4679998     1.7485628    -0.9187963
N           4.2651079     1.0287822    -1.0432538
H           3.7353424     1.1672645    -1.9000253
C           3.7983054     0.0857886    -0.1721249
C           4.5276994    -0.2296618     0.9437956
H           4.1879238    -1.0052217     1.6173742
C           5.7596367     0.4563420     1.1618415
H           6.3487483     0.2093046     2.0417235
O           2.2378807    -0.5505393    -1.8164840
C           0.8408691    -2.2438268    -0.2701573
H          -0.0591433    -1.7146503    -0.6132016
H           0.5558393    -2.9715128     0.4956163
H           1.2778531    -2.7640898    -1.1229089
O           5.8028963     2.5622375    -1.7717271
22
243_C8H10N2O2_1-0-3-11 (75,) energy =    -570.8293622
N           1.8597661    -1.3417866     0.3846362
C           1.2261608    -0.6703501     1.5326992
H           1.0287608    -1.4051224     2.3193436
C           2.4721879    -0.4959787    -0.5508550
H           0.2744524    -0.2001001     1.2432770
C           6.2429261     1.3404462     0.2750213
H           7.1981648     1.8349717     0.4121457
H           1.8896724     0.0986468     1.9342258
C           5.4826753     1.7312129    -0.9070709
N           4.2555686     1.0521638    -1.0136074
H           3.7000373     1.2353337    -1.8452114
C           3.7844667     0.1059854    -0.1473943
C           4.5285702    -0.2511320     0.9457834
H           4.1737439    -1.0251510     1.6129780
C           5.7852625     0.3940681     1.1456099
H           6.3871256     0.1163811     2.0074701
O           2.0883445    -0.3756838    -1.7077708
C           0.9397861    -2.3071780    -0.2307484
H           0.0251523    -1.8326509    -0.6124029
H           0.6686020    -3.0476564     0.5277251
H           1.4379294    -2.8095316    -1.0615062
O           5.8228469     2.5516198    -1.7513137
22
243_C8H10N2O2_1-0-3-11 (90,) energy =    -570.8242575
N           1.8802383    -1.3118640     0.4621628
C           1.0828475    -0.6390813     1.5059607
H           0.8164814    -1.3681300     2.2771152
C           2.4266232    -0.3951518    -0.4735460
H           0.1596818    -0.2025836     1.0949144
C           6.2868331     1.2923066     0.2114676
H           7.2613251     1.7554265     0.3202782
H           1.6717236     0.1562532     1.9720367
C           5.4928695     1.7342312    -0.9311635
N           4.2431468     1.0957004    -1.0047694
H           3.6512241     1.3309712    -1.7970275
C           3.7776299     0.1456111    -0.1381615
C           4.5503494    -0.2567359     0.9189256
H           4.1874466    -1.0289156     1.5834993
C           5.8336379     0.3446275     1.0829937
H           6.4582149     0.0333133     1.9166746
O           1.9345236    -0.1636603    -1.5682317
C           1.0707758    -2.3472609    -0.2015634
H           0.1537710    -1.9468031    -0.6551395
H           0.8017699    -3.0967177     0.5489439
H           1.6622966    -2.8284674    -0.9836077
O           5.8266202     2.5660102    -1.7666648
22
243_C8H10N2O2_1-0-3-11 (105,) energy =    -570.8197846
N           1.8684457    -1.2441046     0.5533732
C           0.8971056    -0.6150582     1.4682054
H           0.5873129    -1.3536457     2.2137402
C           2.3816223    -0.2744050    -0.3722938
H           0.0056633    -0.2442465     0.9387323
C           6.3353775     1.2256246     0.1540558
H           7.3322392     1.6460527     0.2289112
H           1.3695961     0.2222245     1.9919752
C           5.5059243     1.7394080    -0.9335565
N           4.2304438     1.1530540    -0.9682122
H           3.6053546     1.4511735    -1.7122181
C           3.7681072     0.1946170    -0.1071261
C           4.5712637    -0.2717172     0.8999965
H           4.1973937    -1.0400009     1.5626748
C           5.8853949     0.2707273     1.0192251
H           6.5347402    -0.0900540     1.8129828
O           1.7864003     0.0947270    -1.3715426
C           1.2360179    -2.3655152    -0.1641240
H           0.3488485    -2.0630543    -0.7381886
H           0.9454286    -3.1188942     0.5744464
H           1.9601794    -2.8158339    -0.8487692
O           5.8354066     2.5880229    -1.7534817
22
243_C8H10N2O2_1-0-3-11 (120,) energy =    -570.8230687
N           1.3258107    -0.8320097     0.2109676
C           0.3241007    -0.5807660     1.2429923
H           0.7311295    -0.8140423     2.2385900
C           2.0598255     0.2494769    -0.2521131
H          -0.5634856    -1.2024566     1.0773519
C           6.3023021     0.7882001     0.0390249
H           7.3627009     1.0099723     0.0847798
H           0.0251330     0.4669476     1.2034120
C           5.5080425     1.6226108    -0.8549175
N           4.1460938     1.2726215    -0.8582338
H           3.5205850     1.8715673    -1.3913399
C           3.5623058     0.2799088    -0.1215661
C           4.3366560    -0.4794940     0.7160104
H           3.9001969    -1.2558574     1.3277218
C           5.7344911    -0.1995341     0.7890406
H           6.3517161    -0.7920974     1.4599913
O           1.5097393     1.2854983    -0.6157055
C           1.8113739    -2.2035032     0.1493838
H           0.9932354    -2.8529201    -0.1867901
H           2.1536841    -2.5799578     1.1257574
H           2.6287002    -2.2859351    -0.5683800
O           5.9214170     2.5459517    -1.5462049
22
243_C8H10N2O2_1-0-3-11 (135,) energy =    -570.8289603
N           1.3962146    -0.8268413     0.2995363
C           0.2252430    -0.6189692     1.1438485
H           0.4375780    -0.9616642     2.1664848
C           2.0999867     0.2738318    -0.1341084
H          -0.6385720    -1.1784020     0.7639728
C           6.3574842     0.7669159    -0.0485738
H           7.4210356     0.9779122    -0.0549661
H          -0.0228794     0.4419605     1.1515732
C           5.5281873     1.6113531    -0.8994659
N           4.1641428     1.2736751    -0.8367583
H           3.5191272     1.8833087    -1.3332935
C           3.6076367     0.2861740    -0.0730378
C           4.4144872    -0.4802106     0.7265907
H           3.9997356    -1.2474125     1.3650146
C           5.8170484    -0.2148962     0.7290616
H           6.4606515    -0.8134499     1.3692556
O           1.5405631     1.3281670    -0.4317108
C           1.8734307    -2.1992091     0.2295672
H           1.0729822    -2.8325771    -0.1735207
H           2.1492827    -2.5980229     1.2172817
H           2.7339637    -2.2708813    -0.4358721
O           5.9145252     2.5335803    -1.6078666
22
243_C8H10N2O2_1-0-3-11 (150,) energy =    -570.8335415
N           1.4697924    -0.8342217     0.4234249
C           0.1645869    -0.6710453     1.0527276
H           0.1706153    -1.1597241     2.0355289
C           2.1470972     0.2858201     0.0179716
H          -0.6306359    -1.1231934     0.4457733
C           6.4075104     0.7429588    -0.1059947
H           7.4713096     0.9439707    -0.1661712
H          -0.0434782     0.3920779     1.1652169
C           5.5443681     1.5897498    -0.9195108
N           4.1816902     1.2658254    -0.7856792
H           3.5193634     1.8800247    -1.2526988
C           3.6561562     0.2862275     0.0088317
C           4.4944202    -0.4814678     0.7741529
H           4.1037474    -1.2362904     1.4426173
C           5.8975501    -0.2287735     0.7042958
H           6.5671339    -0.8284315     1.3161890
O           1.5775065     1.3495453    -0.2282194
C           1.9435770    -2.2047075     0.3019283
H           1.1692819    -2.8075564    -0.1895697
H           2.1501920    -2.6566538     1.2825128
H           2.8469073    -2.2453727    -0.3057681
O           5.9024024     2.5039907    -1.6529569
22
243_C8H10N2O2_1-0-3-11 (165,) energy =    -570.8360768
N           1.5145920    -0.8204773     0.5770799
C           0.1155836    -0.6892088     0.9698922
H          -0.0752653    -1.3318773     1.8368364
C           2.1812014     0.3140654     0.2017667
H          -0.5581767    -0.9906362     0.1563066
C           6.4330732     0.7310907    -0.1490780
H           7.4937594     0.9221842    -0.2677724
H          -0.0882392     0.3499116     1.2237646
C           5.5352710     1.5815821    -0.9194590
N           4.1781091     1.2721323    -0.7099065
H           3.4977789     1.8924742    -1.1414725
C           3.6879198     0.3010319     0.1165143
C           4.5593997    -0.4685688     0.8421876
H           4.1964967    -1.2126387     1.5383815
C           5.9589801    -0.2304839     0.6946420
H           6.6552610    -0.8316877     1.2744129
O           1.6057408     1.3836398    -0.0038075
C           1.9841054    -2.1877175     0.3908324
H           1.2424831    -2.7459270    -0.1948918
H           2.1149027    -2.7031815     1.3517111
H           2.9283950    -2.2012409    -0.1511461
O           5.8604828     2.4883583    -1.6770459
22
243_C8H10N2O2_1-0-3-11 (180,) energy =    -570.8359467
N           1.5454860    -0.7988526     0.6872571
C           0.0958636    -0.6886570     0.8367808
H          -0.2428402    -1.4072796     1.5901780
C           2.2248079     0.3471454     0.3729453
H          -0.4142522    -0.9046041    -0.1118995
C           6.4533453     0.7201908    -0.2373460
H           7.5061474     0.9012008    -0.4230022
H          -0.1583476     0.3228565     1.1486439
C           5.5166487     1.5790252    -0.9492531
N           4.1721294     1.2836669    -0.6528639
H           3.4733792     1.9139444    -1.0378120
C           3.7251231     0.3156811     0.2013507
C           4.6345671    -0.4604460     0.8721649
H           4.3103718    -1.1980082     1.5942259
C           6.0242643    -0.2356409     0.6364134
H           6.7498354    -0.8425289     1.1727124
O           1.6561248     1.4291833     0.2178715
C           2.0320417    -2.1606613     0.4828919
H           1.3293564    -2.6998948    -0.1645146
H           2.1042621    -2.7043830     1.4335887
H           3.0069220    -2.1590438    -0.0007585
O           5.8006057     2.4826944    -1.7269001
