21
045_C10H8N2O_1-0-16-17 (-165,) energy =    -570.5781828
C           2.4526310    -1.3215603    -0.4960769
C           1.8593036    -1.7726322     0.6939982
H           2.2352051    -1.4177954     1.6438273
C           0.7968492    -2.6698539     0.6494470
H           0.3465422    -3.0020513     1.5809442
C           0.3121590    -3.1385077    -0.5730604
H          -0.5184995    -3.8380556    -0.6044889
C           0.9090258    -2.6959512    -1.7511347
H           0.5496336    -3.0521788    -2.7127205
C           1.9741949    -1.7936582    -1.7275503
H           2.4197086    -1.4554563    -2.6490341
C           5.7467174     1.2241888     0.0461329
H           6.6021064     1.8500149     0.2841958
C           5.1583143     0.4011238     1.0498381
H           5.5463961     0.3735589     2.0638257
N           4.1363236    -0.3757743     0.8313754
N           3.5781007    -0.4154405    -0.4002640
C           4.0602851     0.3462913    -1.5097388
C           5.2039353     1.1890081    -1.1954793
H           5.5797761     1.7781048    -2.0249385
O           3.5496202     0.3045546    -2.6237031
21
045_C10H8N2O_1-0-16-17 (-150,) energy =    -570.5791685
C           2.4726516    -1.3413673    -0.4865247
C           1.7896353    -1.6798665     0.6888658
H           2.1081947    -1.2509423     1.6307515
C           0.7169324    -2.5659649     0.6384973
H           0.1913892    -2.8173517     1.5556635
C           0.3168747    -3.1234259    -0.5773395
H          -0.5226870    -3.8119637    -0.6150403
C           1.0047600    -2.7871791    -1.7427108
H           0.7072584    -3.2172813    -2.6950572
C           2.0815400    -1.9005173    -1.7096150
H           2.6011561    -1.6387567    -2.6190515
C           5.7544791     1.1972934     0.0366158
H           6.6139091     1.8217001     0.2643237
C           5.2714001     0.2673827     1.0033476
H           5.7446804     0.1590608     1.9746600
N           4.2502157    -0.5162680     0.7965784
N           3.6041747    -0.4508627    -0.3891988
C           3.9641392     0.4289312    -1.4557593
C           5.1124532     1.2700681    -1.1561601
H           5.4065751     1.9513735    -1.9471979
O           3.3488635     0.4657890    -2.5148014
21
045_C10H8N2O_1-0-16-17 (-135,) energy =    -570.5792472
C           2.5024458    -1.3729794    -0.4915743
C           1.7379536    -1.5971214     0.6570451
H           2.0115671    -1.1034274     1.5826390
C           0.6465981    -2.4616288     0.6016727
H           0.0553793    -2.6343154     1.4966734
C           0.3112163    -3.0951867    -0.5962848
H          -0.5429720    -3.7652090    -0.6391800
C           1.0770370    -2.8611625    -1.7394818
H           0.8232309    -3.3505880    -2.6755720
C           2.1734972    -2.0006676    -1.6965351
H           2.7593837    -1.8105599    -2.5857247
C           5.7488903     1.1919988     0.0092830
H           6.6029497     1.8272360     0.2278632
C           5.3723933     0.1661667     0.9260615
H           5.9204738    -0.0010824     1.8483010
N           4.3616200    -0.6352537     0.7288691
N           3.6394075    -0.4929910    -0.4039173
C           3.8728322     0.4951018    -1.4082547
C           5.0152528     1.3488684    -1.1218470
H           5.2266449     2.1122842    -1.8628071
O           3.1651631     0.5885775    -2.4031407
21
045_C10H8N2O_1-0-16-17 (-120,) energy =    -570.5781785
C           2.5284485    -1.3978550    -0.4843358
C           1.6832501    -1.5097728     0.6205655
H           1.9066649    -0.9482275     1.5216718
C           0.5768421    -2.3559237     0.5563171
H          -0.0783811    -2.4496287     1.4178020
C           0.3080811    -3.0707237    -0.6122420
H          -0.5573706    -3.7256097    -0.6628614
C           1.1507111    -2.9386011    -1.7180138
H           0.9428292    -3.4895137    -2.6308881
C           2.2625321    -2.0994662    -1.6610340
H           2.9142459    -1.9822512    -2.5188504
C           5.7556682     1.1793901     0.0006897
H           6.6096808     1.8171132     0.2126987
C           5.4786060     0.0638546     0.8467461
H           6.1005120    -0.1659954     1.7064924
N           4.4725031    -0.7461809     0.6564631
N           3.6693892    -0.5217293    -0.4054442
C           3.7868298     0.5653335    -1.3222050
C           4.9307726     1.4224890    -1.0500199
H           5.0653995     2.2600776    -1.7260577
O           2.9900018     0.7203669    -2.2378644
21
045_C10H8N2O_1-0-16-17 (-105,) energy =    -570.5766969
C           2.5273010    -1.3914301    -0.4755182
C           1.5947478    -1.3993830     0.5607192
H           1.7431330    -0.7522709     1.4194968
C           0.4916850    -2.2497455     0.4836260
H          -0.2339020    -2.2640395     1.2920136
C           0.3184841    -3.0726543    -0.6306533
H          -0.5433093    -3.7315768    -0.6906592
C           1.2506557    -3.0459542    -1.6702123
H           1.1164528    -3.6816418    -2.5408130
C           2.3578985    -2.2016163    -1.5972656
H           3.0856733    -2.1653076    -2.4011890
C           5.7861461     1.1495583    -0.0310914
H           6.6600800     1.7675000     0.1575252
C           5.5967640    -0.0514349     0.7179389
H           6.3044735    -0.3637831     1.4797128
N           4.5738538    -0.8456407     0.5492506
N           3.6678578    -0.5105179    -0.3932734
C           3.6882853     0.6646367    -1.1974122
C           4.8587117     1.4974225    -0.9599710
H           4.9283767     2.4017587    -1.5551056
O           2.7942067     0.9025480    -1.9976128
21
045_C10H8N2O_1-0-16-17 (-90,) energy =    -570.5760345
C           2.5006354    -1.3584246    -0.4634203
C           1.4702856    -1.2734533     0.4711300
H           1.5222318    -0.5306852     1.2610349
C           0.3863845    -2.1463413     0.3768938
H          -0.4187603    -2.0851607     1.1035938
C           0.3373212    -3.0943357    -0.6469855
H          -0.5081413    -3.7729767    -0.7185833
C           1.3738393    -3.1701092    -1.5792885
H           1.3380268    -3.9066898    -2.3769529
C           2.4602764    -2.2997934    -1.4902403
H           3.2733634    -2.3460567    -2.2079533
C           5.8260252     1.1064661    -0.0811889
H           6.7307922     1.6900685     0.0674783
C           5.7116492    -0.1830869     0.5222908
H           6.5096484    -0.5995632     1.1293119
N           4.6574508    -0.9428322     0.3905843
N           3.6364411    -0.4708674    -0.3546318
C           3.5885564     0.7833526    -1.0229686
C           4.7954770     1.5754534    -0.8309184
H           4.8129850     2.5443349    -1.3185687
O           2.6104076     1.1148640    -1.6786397
21
045_C10H8N2O_1-0-16-17 (-75,) energy =    -570.5767652
C           2.4851947    -1.3388304    -0.4531385
C           1.3665682    -1.1679101     0.3614768
H           1.3358096    -0.3428381     1.0654517
C           0.2974097    -2.0558922     0.2502468
H          -0.5778370    -1.9245510     0.8801188
C           0.3535777    -3.1120046    -0.6619264
H          -0.4805098    -3.8033290    -0.7445815
C           1.4824260    -3.2806200    -1.4655777
H           1.5315384    -4.1029349    -2.1737727
C           2.5536877    -2.3930676    -1.3625510
H           3.4410169    -2.5140155    -1.9758981
C           5.8562081     1.0713789    -0.1314038
H           6.7822996     1.6297504    -0.0230041
C           5.7967724    -0.2874100     0.3039274
H           6.6591525    -0.7839390     0.7380625
N           4.7211786    -1.0221482     0.2094165
N           3.6156345    -0.4516730    -0.3136965
C           3.5175952     0.8714487    -0.8296185
C           4.7493995     1.6333464    -0.6820049
H           4.7247758     2.6542694    -1.0479383
O           2.4790607     1.2826313    -1.3288222
21
045_C10H8N2O_1-0-16-17 (-60,) energy =    -570.5782711
C           2.4855080    -1.3349396    -0.4506830
C           1.3025861    -1.0864739     0.2477300
H           1.2151619    -0.1979471     0.8617748
C           0.2393940    -1.9799763     0.1284131
H          -0.6838485    -1.7870871     0.6672445
C           0.3599700    -3.1184328    -0.6715519
H          -0.4713780    -3.8122224    -0.7597650
C           1.5513831    -3.3639793    -1.3560335
H           1.6528337    -4.2491440    -1.9775390
C           2.6184824    -2.4729710    -1.2470794
H           3.5539848    -2.6550663    -1.7652559
C           5.8763611     1.0569715    -0.1738708
H           6.8115765     1.6049559    -0.0970679
C           5.8497151    -0.3413516     0.1106815
H           6.7462959    -0.8801970     0.4010808
N           4.7655422    -1.0655823     0.0402516
N           3.6135079    -0.4506133    -0.3014884
C           3.4773629     0.9253652    -0.6523792
C           4.7232416     1.6693453    -0.5467090
H           4.6675367     2.7234068    -0.7964274
O           2.3998011     1.3948635    -0.9933242
21
045_C10H8N2O_1-0-16-17 (-45,) energy =    -570.5792910
C           2.4850475    -1.3393816    -0.4587099
C           1.2577111    -1.0299685     0.1355099
H           1.1306052    -0.0952976     0.6646572
C           0.1992808    -1.9308510     0.0229324
H          -0.7541061    -1.6896178     0.4845837
C           0.3575078    -3.1314784    -0.6709083
H          -0.4730936    -3.8267246    -0.7553379
C           1.5882345    -3.4336876    -1.2563679
H           1.7222877    -4.3653453    -1.7989974
C           2.6529470    -2.5408589    -1.1534838
H           3.6153927    -2.7685066    -1.5973165
C           5.8841166     1.0604686    -0.2037646
H           6.8212903     1.6063340    -0.1374068
C           5.8762109    -0.3581729    -0.0569944
H           6.7896320    -0.9171297     0.1223199
N           4.7902118    -1.0787513    -0.1226082
N           3.6124966    -0.4513578    -0.3326834
C           3.4539678     0.9560172    -0.5164865
C           4.7047444     1.6933122    -0.4296228
H           4.6258221     2.7666553    -0.5646100
O           2.3592603     1.4639787    -0.7244737
21
045_C10H8N2O_1-0-16-17 (-30,) energy =    -570.5791055
C           2.4805500    -1.3386988    -0.4617810
C           1.2150347    -0.9870804     0.0245739
H           1.0523722    -0.0169082     0.4687581
C           0.1649002    -1.9001697    -0.0792736
H          -0.8126272    -1.6215266     0.3044850
C           0.3567239    -3.1507374    -0.6649173
H          -0.4692437    -3.8519796    -0.7449754
C           1.6202883    -3.4915965    -1.1513001
H           1.7859949    -4.4603492    -1.6146205
C           2.6788873    -2.5927276    -1.0551936
H           3.6612586    -2.8549206    -1.4275635
C           5.8988801     1.0615445    -0.2282988
H           6.8400137     1.6012204    -0.1704537
C           5.8908563    -0.3639353    -0.2171262
H           6.8098313    -0.9380915    -0.1462622
N           4.7999331    -1.0748574    -0.2797845
N           3.6079996    -0.4423017    -0.3659368
C           3.4503974     0.9778813    -0.3834282
C           4.7078585     1.7054470    -0.3111351
H           4.6185281     2.7862072    -0.3303718
O           2.3539742     1.5194726    -0.4616909
21
045_C10H8N2O_1-0-16-17 (-15,) energy =    -570.5781301
C           2.4763560    -1.3377355    -0.4677883
C           1.1778707    -0.9533742    -0.1013442
H           0.9868011     0.0472725     0.2505622
C           0.1345144    -1.8762582    -0.1984634
H          -0.8643456    -1.5651753     0.0951700
C           0.3562921    -3.1701441    -0.6633874
H          -0.4646133    -3.8777797    -0.7389843
C           1.6489862    -3.5435679    -1.0360953
H           1.8441840    -4.5459377    -1.4075647
C           2.7023977    -2.6395146    -0.9443178
H           3.7017930    -2.9343620    -1.2335006
C           5.9173917     1.0598479    -0.2589575
H           6.8629050     1.5928838    -0.2156231
C           5.8985032    -0.3591587    -0.3897242
H           6.8155174    -0.9388006    -0.4413879
N           4.8020755    -1.0592736    -0.4457485
N           3.6041284    -0.4325651    -0.3897028
C           3.4616431     0.9821525    -0.2409110
C           4.7254420     1.7013545    -0.1887960
H           4.6350195     2.7774190    -0.0877792
O           2.3738436     1.5442740    -0.1760452
21
045_C10H8N2O_1-0-16-17 (0,) energy =    -570.5775407
C           2.4841977    -1.3448001    -0.4809193
C           1.1626440    -0.9263340    -0.2574659
H           0.9546022     0.1013262    -0.0103777
C           0.1200551    -1.8502120    -0.3572715
H          -0.8957257    -1.5068807    -0.1807563
C           0.3627550    -3.1836000    -0.6747123
H          -0.4569679    -3.8927039    -0.7492172
C           1.6784921    -3.5946547    -0.8957480
H           1.8942743    -4.6301873    -1.1449109
C           2.7317911    -2.6910648    -0.8016450
H           3.7462838    -3.0201794    -0.9749622
C           5.9380632     1.0524234    -0.3036679
H           6.8842758     1.5854878    -0.2839641
C           5.9015605    -0.3403035    -0.6027556
H           6.8073436    -0.9007162    -0.8154895
N           4.8027559    -1.0362369    -0.6440786
N           3.6143730    -0.4388630    -0.3945127
C           3.4922084     0.9503334    -0.0773165
C           4.7580055     1.6680593    -0.0504568
H           4.6768723     2.7231595     0.1870214
O           2.4207850     1.5008687     0.1537828
21
045_C10H8N2O_1-0-16-17 (15,) energy =    -570.5781301
C           2.4869233    -1.3449656    -0.5001170
C           1.1603568    -0.8952416    -0.4222763
H           0.9495174     0.1528781    -0.2857844
C           0.1153472    -1.8161491    -0.5203834
H          -0.9066622    -1.4513210    -0.4646008
C           0.3650064    -3.1765185    -0.6832990
H          -0.4565627    -3.8839320    -0.7535788
C           1.6875323    -3.6191206    -0.7499350
H           1.9059981    -4.6767466    -0.8705011
C           2.7426057    -2.7171526    -0.6567463
H           3.7649963    -3.0653626    -0.7098589
C           5.9268599     1.0582474    -0.3440052
H           6.8692563     1.5985096    -0.3404767
C           5.8720679    -0.2870617    -0.8110623
H           6.7566942    -0.7992732    -1.1780006
N           4.7767251    -0.9903516    -0.8437613
N           3.6175839    -0.4447074    -0.4082395
C           3.5103289     0.8978217     0.0713356
C           4.7715390     1.6233225     0.0838992
H           4.7099672     2.6401132     0.4562281
O           2.4548527     1.3928486     0.4513718
21
045_C10H8N2O_1-0-16-17 (30,) energy =    -570.5791054
C           2.4898229    -1.3432336    -0.5112732
C           1.1714298    -0.8730812    -0.5618734
H           0.9692973     0.1865830    -0.5267427
C           0.1218450    -1.7886254    -0.6487523
H          -0.8977673    -1.4158035    -0.6921449
C           0.3672701    -3.1606598    -0.6788614
H          -0.4577989    -3.8647011    -0.7417438
C           1.6841397    -3.6212238    -0.6233129
H           1.8927535    -4.6874192    -0.6411606
C           2.7427692    -2.7214248    -0.5370176
H           3.7655913    -3.0746204    -0.4977522
C           5.9012699     1.0736271    -0.3703000
H           6.8369148     1.6257453    -0.3758290
C           5.8318557    -0.2188086    -0.9677693
H           6.6959128    -0.6756015    -1.4410330
N           4.7431039    -0.9350465    -1.0004827
N           3.6160085    -0.4430369    -0.4384500
C           3.5239211     0.8355679     0.1930781
C           4.7749811     1.5775622     0.1932803
H           4.7362787     2.5492179     0.6736962
O           2.4851627     1.2520534     0.6922114
21
045_C10H8N2O_1-0-16-17 (45,) energy =    -570.5792907
C           2.4894465    -1.3430090    -0.5131371
C           1.1864443    -0.8659619    -0.6854400
H           1.0009610     0.1978160    -0.7468796
C           0.1318361    -1.7752533    -0.7596366
H          -0.8803387    -1.4038619    -0.8931595
C           0.3677858    -3.1477607    -0.6671344
H          -0.4600706    -3.8490484    -0.7240443
C           1.6728467    -3.6144312    -0.5002504
H           1.8678432    -4.6807267    -0.4267727
C           2.7351248    -2.7162349    -0.4218795
H           3.7534538    -3.0674043    -0.3002329
C           5.8753274     1.0842326    -0.3825920
H           6.8056129     1.6455771    -0.3915954
C           5.7824506    -0.1457474    -1.0987935
H           6.6226056    -0.5428014    -1.6604212
N           4.6994924    -0.8728521    -1.1356367
N           3.6086261    -0.4369454    -0.4689341
C           3.5449655     0.7607777     0.3062586
C           4.7861578     1.5190401     0.3009616
H           4.7777384     2.4362456     0.8799716
O           2.5297725     1.0918601     0.9057315
21
045_C10H8N2O_1-0-16-17 (60,) energy =    -570.5782711
C           2.4825579    -1.3401356    -0.5140380
C           1.2008516    -0.8758075    -0.8146234
H           1.0354196     0.1826368    -0.9778244
C           0.1445487    -1.7829241    -0.8816327
H          -0.8547783    -1.4240816    -1.1111324
C           0.3675366    -3.1440675    -0.6624043
H          -0.4592180    -3.8468642    -0.7171092
C           1.6550630    -3.5998335    -0.3745117
H           1.8358262    -4.6577242    -0.2059309
C           2.7168739    -2.6989739    -0.3000280
H           3.7246741    -3.0391652    -0.0865000
C           5.8524630     1.0949592    -0.3978593
H           6.7773107     1.6654079    -0.4129657
C           5.7197855    -0.0601748    -1.2254853
H           6.5254736    -0.3913900    -1.8734933
N           4.6407474    -0.7944760    -1.2617527
N           3.5965743    -0.4262417    -0.4891318
C           3.5809663     0.6736738     0.4189925
C           4.8130913     1.4475024     0.4014607
H           4.8453222     2.3004329     1.0708654
O           2.6049703     0.9131183     1.1175057
21
045_C10H8N2O_1-0-16-17 (75,) energy =    -570.5767652
C           2.4884855    -1.3401774    -0.5178767
C           1.2452659    -0.8935415    -0.9640595
H           1.1171158     0.1467275    -1.2445899
C           0.1803508    -1.7909255    -1.0322311
H          -0.7911265    -1.4469033    -1.3756504
C           0.3628458    -3.1263924    -0.6664439
H          -0.4686685    -3.8234530    -0.7226998
C           1.6141586    -3.5659000    -0.2309582
H           1.7609906    -4.6046988     0.0509937
C           2.6827040    -2.6722748    -0.1560317
H           3.6633392    -2.9996140     0.1747170
C           5.8355114     1.1231296    -0.4376147
H           6.7469760     1.7138224    -0.4763185
C           5.6406534     0.0646421    -1.3762133
H           6.3858488    -0.1723427    -2.1293748
N           4.5726211    -0.6867779    -1.3949088
N           3.6082044    -0.4293239    -0.4866027
C           3.6622436     0.5567793     0.5386546
C           4.8747501     1.3613207     0.4920044
H           4.9604621     2.1376783     1.2448157
O           2.7530157     0.6816489     1.3476897
21
045_C10H8N2O_1-0-16-17 (90,) energy =    -570.5760345
C           2.5047724    -1.3616368    -0.5194601
C           1.3223822    -0.9400135    -1.1247759
H           1.2561797     0.0643163    -1.5313392
C           0.2404560    -1.8172363    -1.1992753
H          -0.6830509    -1.4939793    -1.6712225
C           0.3448264    -3.1048739    -0.6696166
H          -0.4993556    -3.7863273    -0.7284833
C           1.5332643    -3.5169503    -0.0637047
H           1.6170969    -4.5181971     0.3493065
C           2.6185561    -2.6441148     0.0138938
H           3.5488190    -2.9497302     0.4824830
C           5.7978489     1.1745328    -0.4623310
H           6.6819145     1.8038908    -0.5226289
C           5.5201479     0.2462757    -1.5118313
H           6.1730731     0.1511531    -2.3740160
N           4.4790401    -0.5423911    -1.5116338
N           3.6355178    -0.4629488    -0.4615630
C           3.7646547     0.3997044     0.6614628
C           4.9456343     1.2490976     0.5922999
H           5.0934401     1.9296078     1.4241088
O           2.9405852     0.3902553     1.5655585
21
045_C10H8N2O_1-0-16-17 (105,) energy =    -570.5766969
C           2.5316870    -1.3952710    -0.5272534
C           1.4223560    -1.0122705    -1.2797069
H           1.4339571    -0.0624260    -1.8049957
C           0.3194637    -1.8628617    -1.3566439
H          -0.5444283    -1.5714028    -1.9473350
C           0.3242950    -3.0792742    -0.6717126
H          -0.5371652    -3.7388087    -0.7297598
C           1.4346690    -3.4466400     0.0914923
H           1.4398462    -4.3903945     0.6294086
C           2.5421990    -2.6030619     0.1688445
H           3.4083094    -2.8726436     0.7642038
C           5.7512690     1.2326380    -0.4815822
H           6.5992294     1.9081963    -0.5575249
C           5.3766537     0.4421121    -1.6102947
H           5.9161472     0.5012216    -2.5506020
N           4.3715513    -0.3916254    -1.5971290
N           3.6717520    -0.5132973    -0.4494907
C           3.8898537     0.2239433     0.7492454
C           5.0284280     1.1272862     0.6631306
H           5.2448606     1.7067442     1.5543282
O           3.1712731     0.0732426     1.7276399
21
045_C10H8N2O_1-0-16-17 (120,) energy =    -570.5781787
C           2.4178435    -1.2733946    -0.4496039
C           2.2805430    -2.2424408     0.5452839
H           2.9833606    -2.2619096     1.3716508
C           1.2312464    -3.1578087     0.4723272
H           1.1189112    -3.9084895     1.2495780
C           0.3366781    -3.1150010    -0.5984638
H          -0.4772901    -3.8322943    -0.6566444
C           0.4929192    -2.1518080    -1.5974950
H          -0.1982260    -2.1175694    -2.4348817
C           1.5355423    -1.2288512    -1.5300366
H           1.6706363    -0.4860881    -2.3074397
C           5.6215281     1.3335224     0.0363016
H           6.4359568     2.0195712     0.2531340
C           4.5904070     1.1320804     1.0023287
H           4.5990254     1.6457898     1.9587790
N           3.5804766     0.3264674     0.8136605
N           3.5046434    -0.3314919    -0.3630297
C           4.4698401    -0.2721010    -1.4123828
C           5.5619682     0.6485427    -1.1344546
H           6.3167194     0.7344377    -1.9088476
O           4.3497917    -0.9381145    -2.4318311
21
045_C10H8N2O_1-0-16-17 (135,) energy =    -570.5792474
C           2.4416278    -1.3004281    -0.4617004
C           2.2154778    -2.1786227     0.6021219
H           2.8636416    -2.1402497     1.4703005
C           1.1537227    -3.0788035     0.5400864
H           0.9803973    -3.7590712     1.3692915
C           0.3236894    -3.1112429    -0.5819434
H          -0.5008254    -3.8170583    -0.6310054
C           0.5602405    -2.2343267    -1.6417338
H          -0.0812985    -2.2526335    -2.5182678
C           1.6175782    -1.3266044    -1.5906035
H           1.8074237    -0.6554316    -2.4173617
C           5.6352756     1.3271514     0.0534217
H           6.4475410     2.0122386     0.2805278
C           4.6767543     1.0035268     1.0589533
H           4.7350195     1.4260364     2.0574506
N           3.6746026     0.1921605     0.8585084
N           3.5313838    -0.3635049    -0.3645131
C           4.4143942    -0.1586807    -1.4680996
C           5.5045800     0.7576646    -1.1717097
H           6.1972829     0.9405327    -1.9861171
O           4.2437432    -0.7125589    -2.5467128
21
045_C10H8N2O_1-0-16-17 (150,) energy =    -570.5791685
C           2.4706471    -1.3385532    -0.4758682
C           2.1518953    -2.1195656     0.6426313
H           2.7477503    -2.0274860     1.5421244
C           1.0729429    -2.9980278     0.5920390
H           0.8380445    -3.6025301     1.4638106
C           0.3023472    -3.1052879    -0.5671657
H          -0.5370511    -3.7939711    -0.6058278
C           0.6210887    -2.3206243    -1.6748892
H           0.0269714    -2.3903706    -2.5818726
C           1.6992624    -1.4356905    -1.6408029
H           1.9439948    -0.8399434    -2.5072847
C           5.6493709     1.3239871     0.0667443
H           6.4536583     2.0147303     0.3041087
C           4.7688565     0.8738539     1.0937672
H           4.8759546     1.2072263     2.1216643
N           3.7804191     0.0508651     0.8808188
N           3.5712045    -0.4107229    -0.3725162
C           4.3664495    -0.0562803    -1.5052617
C           5.4472873     0.8661437    -1.1941209
H           6.0704824     1.1502592    -2.0351574
O           4.1508708    -0.5018222    -2.6261990
21
045_C10H8N2O_1-0-16-17 (165,) energy =    -570.5781829
C           2.4848360    -1.3603023    -0.4908443
C           2.0759624    -2.0361630     0.6701134
H           2.6117993    -1.8767922     1.5957800
C           0.9887848    -2.9034141     0.6281038
H           0.6918063    -3.4223587     1.5354720
C           0.2870085    -3.1076739    -0.5613585
H          -0.5606807    -3.7865641    -0.5909152
C           0.6897647    -2.4286026    -1.7087862
H           0.1540035    -2.5703070    -2.6434497
C           1.7798323    -1.5565126    -1.6878779
H           2.0829971    -1.0448600    -2.5869094
C           5.6751186     1.3107977     0.0712260
H           6.4809378     1.9963830     0.3175095
C           4.8828158     0.7329721     1.1053454
H           5.0572800     0.9623841     2.1524765
N           3.8996553    -0.0905627     0.8796861
N           3.5992709    -0.4408632    -0.3920804
C           4.2985587     0.0597673    -1.5340337
C           5.3811958     0.9757998    -1.2089123
H           5.9258072     1.3617521    -2.0637323
O           4.0214488    -0.2625904    -2.6841420
21
045_C10H8N2O_1-0-16-17 (180,) energy =    -570.5775410
C           2.4685593    -1.3430372    -0.4854495
C           1.9676591    -1.9075321     0.7007538
H           2.4231604    -1.6519331     1.6466391
C           0.8928377    -2.7894320     0.6587672
H           0.5230788    -3.2130909     1.5886974
C           0.2943442    -3.1286872    -0.5559836
H          -0.5449948    -3.8179207    -0.5842173
C           0.7917947    -2.5685896    -1.7292042
H           0.3423992    -2.8175883    -2.6867442
C           1.8700211    -1.6811195    -1.7098111
H           2.2407798    -1.2582984    -2.6285967
C           5.7169112     1.2707202     0.0818798
H           6.5464325     1.9259727     0.3316477
C           5.0230885     0.5649854     1.1070685
H           5.3005261     0.6604328     2.1528677
N           4.0220557    -0.2336507     0.8758650
N           3.5907916    -0.4279387    -0.3920708
C           4.1881935     0.2094261    -1.5244471
C           5.2999586     1.0886836    -1.1943354
H           5.7599299     1.5784423    -2.0456786
O           3.8068413     0.0386317    -2.6776370
