25
285_C8H13N3O_1-0-14-10 (-165,) energy =    -552.1478646
C           2.1736159     0.6294203    -0.1828914
N           1.7233012    -0.2388933    -1.1877278
C           1.9005155    -1.6818685    -1.0098909
H           1.9592431    -2.1794600    -1.9853342
H           1.0531418    -2.1174467    -0.4570806
H           2.8129191    -1.8905196    -0.4511694
C           0.4330891     0.1094460    -1.7754349
H           0.3947678     1.1825969    -1.9626072
H          -0.4090459    -0.1515361    -1.1172667
H           0.3225292    -0.4329933    -2.7206119
C           3.9761795     1.0881227     1.5224436
N           3.1866396     1.7768940     2.4200502
H           2.3578254     2.1701050     1.9846558
H           3.6800610     2.4100325     3.0348979
C           3.5282424     0.4915432     0.3340323
N           4.6306227    -0.1834432    -0.2415271
C           4.8408605    -0.3621532    -1.6764857
H           5.6273509    -1.1077789    -1.8261955
H           5.1479752     0.5791142    -2.1507684
H           3.9267183    -0.7021094    -2.1582423
C           5.7081903     0.0016031     0.5839110
H           6.6777409    -0.3863839     0.2999295
C           5.3494604     0.7451569     1.6842312
H           5.9826664     0.9986308     2.5240871
O           1.4447776     1.5506399     0.2177049
25
285_C8H13N3O_1-0-14-10 (-150,) energy =    -552.1488401
C           2.2019456     0.7343654    -0.2954610
N           1.6977646    -0.2303206    -1.1695322
C           1.9281395    -1.6537387    -0.9307920
H           1.9695904    -2.1962392    -1.8831387
H           1.1131534    -2.0862283    -0.3296056
H           2.8646495    -1.8075139    -0.3959787
C           0.3932747     0.0624159    -1.7529106
H           0.3357362     1.1215422    -2.0028020
H          -0.4298206    -0.1695168    -1.0605308
H           0.2686916    -0.5395119    -2.6596644
C           3.9465213     1.0607067     1.5040131
N           3.1272713     1.7184435     2.4069240
H           2.3588846     2.1959130     1.9457255
H           3.6162776     2.3008945     3.0743034
C           3.5480174     0.5800811     0.2509997
N           4.6407859    -0.1189216    -0.3019784
C           4.8694068    -0.2985079    -1.7312043
H           5.6131094    -1.0876717    -1.8755111
H           5.2366771     0.6262866    -2.1946289
H           3.9422431    -0.5848934    -2.2265018
C           5.6822609    -0.0382181     0.5823994
H           6.6484875    -0.4488683     0.3203882
C           5.2931945     0.6469349     1.7124179
H           5.8905430     0.8161906     2.5984739
O           1.5188169     1.7229792     0.0101874
25
285_C8H13N3O_1-0-14-10 (-135,) energy =    -552.1477337
C           2.2452928     0.8226816    -0.4006416
N           1.6786210    -0.2184798    -1.1249647
C           1.9500364    -1.6216045    -0.8330729
H           2.0008082    -2.2029482    -1.7622965
H           1.1489577    -2.0484792    -0.2105922
H           2.8926043    -1.7275174    -0.2981386
C           0.3682555     0.0321042    -1.7122244
H           0.2992048     1.0784373    -2.0076388
H          -0.4437097    -0.1774107    -1.0000481
H           0.2385260    -0.6128472    -2.5884893
C           3.9266614     1.0247261     1.4828115
N           3.0769382     1.6497858     2.3906396
H           2.3632829     2.1977439     1.9196944
H           3.5592826     2.1879112     3.1000077
C           3.5829255     0.6533445     0.1811971
N           4.6675711    -0.0612365    -0.3563753
C           4.9082989    -0.2486424    -1.7796632
H           5.6367263    -1.0532188    -1.9150892
H           5.2970895     0.6662570    -2.2449280
H           3.9791510    -0.5223562    -2.2815068
C           5.6697491    -0.0781296     0.5749947
H           6.6325320    -0.5074848     0.3317086
C           5.2464659     0.5500842     1.7273302
H           5.8062806     0.6445861     2.6483393
O           1.6181017     1.8726623    -0.2065528
25
285_C8H13N3O_1-0-14-10 (-120,) energy =    -552.1451205
C           2.2496851     0.8840622    -0.5159754
N           1.6274863    -0.2179737    -1.0754624
C           1.9427254    -1.5972060    -0.7323604
H           2.0331240    -2.2114090    -1.6380378
H           1.1428386    -2.0274082    -0.1119491
H           2.8762078    -1.6498358    -0.1745578
C           0.3237398    -0.0168892    -1.6922562
H           0.2377939     1.0205178    -2.0128390
H          -0.4911515    -0.2298016    -0.9848542
H           0.2185440    -0.6870518    -2.5534949
C           3.8544002     0.9862207     1.4531515
N           2.9619755     1.5616894     2.3625944
H           2.2842531     2.1542520     1.8917021
H           3.4248244     2.0717422     3.1061945
C           3.5738052     0.7126429     0.1161629
N           4.6670061     0.0109524    -0.4104890
C           4.9231782    -0.1748823    -1.8289679
H           5.6582788    -0.9742519    -1.9572706
H           5.3079385     0.7416838    -2.2939014
H           4.0002390    -0.4600914    -2.3384939
C           5.6278935    -0.0813216     0.5590326
H           6.5949022    -0.5101126     0.3328813
C           5.1571305     0.4822332     1.7273820
H           5.6756601     0.5151752     2.6764076
O           1.6779719     1.9794252    -0.4639613
25
285_C8H13N3O_1-0-14-10 (-105,) energy =    -552.1418562
C           2.3010758     0.9262913    -0.6438686
N           1.5945130    -0.2003107    -1.0115868
C           1.9019174    -1.5529303    -0.5745237
H           2.0229519    -2.2247328    -1.4354235
H           1.0822826    -1.9434434     0.0448034
H           2.8160018    -1.5642678     0.0168294
C           0.3143953    -0.0312269    -1.6832342
H           0.2365799     0.9974219    -2.0326168
H          -0.5195031    -0.2361400    -0.9968477
H           0.2406280    -0.7241234    -2.5306615
C           3.8360004     0.9215614     1.4095452
N           2.9093101     1.4382113     2.3302623
H           2.2648860     2.0844799     1.8831820
H           3.3593333     1.9002769     3.1132546
C           3.6012681     0.7311257     0.0540354
N           4.7079425     0.0690238    -0.4819860
C           4.9632628    -0.1062114    -1.9001177
H           5.7386053    -0.8656574    -2.0309005
H           5.2947703     0.8275710    -2.3712219
H           4.0540833    -0.4448635    -2.4042169
C           5.6427211    -0.0849334     0.5063767
H           6.6154876    -0.5012784     0.2828945
C           5.1345155     0.4086230     1.6911362
H           5.6280433     0.3937876     2.6539737
O           1.8347251     2.0584571    -0.7963306
25
285_C8H13N3O_1-0-14-10 (-90,) energy =    -552.1412937
C           2.3479543     0.7045847    -0.8806632
N           1.3668926    -0.2535235    -0.9788453
C           1.3338480    -1.4798766    -0.1984846
H           1.2111475    -2.3450783    -0.8636883
H           0.4936360    -1.4714699     0.5091763
H           2.2622289    -1.5848482     0.3620838
C           0.1962397     0.0108389    -1.8010746
H           0.3513338     0.9502654    -2.3300641
H          -0.7086305     0.0825246    -1.1816869
H           0.0517579    -0.8021318    -2.5241679
C           3.7039207     0.6464589     1.3519839
N           2.6706682     0.8699489     2.2893859
H           1.9609494     1.5052003     1.9345603
H           3.0336746     1.2541087     3.1557909
C           3.5235170     0.3927980    -0.0042657
N           4.7876896     0.2335546    -0.5664600
C           5.0541549     0.0526834    -1.9815630
H           6.1349383     0.0573196    -2.1382187
H           4.6028727     0.8677777    -2.5545011
H           4.6507988    -0.9008209    -2.3433743
C           5.7273118     0.3029630     0.4217939
H           6.7732106     0.1443031     0.1983903
C           5.0960362     0.5558788     1.6239917
H           5.5743530     0.6640664     2.5886987
O           2.3138111     1.7453471    -1.5409377
25
285_C8H13N3O_1-0-14-10 (-75,) energy =    -552.1448118
C           2.4130918     0.6030391    -1.0018400
N           1.3242277    -0.2365098    -0.9116370
C           1.2488636    -1.4113785    -0.0585650
H           0.9759056    -2.2885968    -0.6608547
H           0.4907723    -1.2872934     0.7262782
H           2.2139268    -1.5885820     0.4143843
C           0.1465492     0.0432682    -1.7179345
H           0.3210008     0.9617356    -2.2769420
H          -0.7407003     0.1566504    -1.0804507
H          -0.0415879    -0.7793948    -2.4210991
C           3.6888606     0.5530389     1.2695066
N           2.6234343     0.6737369     2.1844387
H           1.8214564     1.1551730     1.7887671
H           2.9065175     1.1561569     3.0310399
C           3.5666321     0.3184100    -0.1022126
N           4.8609317     0.2775863    -0.6229770
C           5.1977127     0.1117334    -2.0263897
H           6.2817821     0.1887914    -2.1351335
H           4.7115730     0.8896976    -2.6192289
H           4.8761119    -0.8694401    -2.3957257
C           5.7561956     0.3920117     0.3970927
H           6.8180006     0.3131969     0.2081292
C           5.0721664     0.5665775     1.5853571
H           5.5110358     0.6882615     2.5668180
O           2.4621447     1.5156865    -1.8318552
25
285_C8H13N3O_1-0-14-10 (-60,) energy =    -552.1481019
C           2.4439758     0.5403744    -1.0816289
N           1.2768387    -0.1528488    -0.8107272
C           1.2110609    -1.3776970    -0.0257607
H           0.9645141    -2.2293448    -0.6769477
H           0.4365579    -1.3069884     0.7480039
H           2.1687564    -1.5668080     0.4562028
C           0.1073970     0.1287046    -1.6300618
H           0.2252774     1.1091305    -2.0898850
H          -0.7948621     0.1100713    -1.0071624
H          -0.0096779    -0.6194762    -2.4278605
C           3.6739657     0.5176485     1.2066190
N           2.5936192     0.6055128     2.1005347
H           1.7464457     0.9478558     1.6579757
H           2.8081913     1.1776612     2.9102556
C           3.5887452     0.3020043    -0.1745084
N           4.8970426     0.2910043    -0.6644284
C           5.2797988     0.1051233    -2.0547142
H           6.3627711     0.2241801    -2.1337152
H           4.7768614     0.8456060    -2.6788050
H           5.0093749    -0.8976762    -2.4066178
C           5.7618052     0.4176255     0.3779186
H           6.8296591     0.3714597     0.2134057
C           5.0482587     0.5660758     1.5528937
H           5.4625323     0.6922900     2.5442198
O           2.5194783     1.3207304    -2.0357617
25
285_C8H13N3O_1-0-14-10 (-45,) energy =    -552.1503039
C           2.4760453     0.4772950    -1.1462646
N           1.2662110    -0.0754107    -0.7266173
C           1.1989041    -1.3412368     0.0005865
H           1.0134767    -2.1747786    -0.6945519
H           0.3812267    -1.3186879     0.7299701
H           2.1310795    -1.5259448     0.5309970
C           0.1075908     0.1947908    -1.5698463
H           0.1796731     1.2048412    -1.9722886
H          -0.8027230     0.0964552    -0.9686218
H           0.0454690    -0.5061901    -2.4156621
C           3.6834859     0.5200120     1.1538847
N           2.5958260     0.5845319     2.0354050
H           1.7376565     0.8707810     1.5737094
H           2.7781003     1.1779284     2.8375592
C           3.6196765     0.3277049    -0.2345834
N           4.9352146     0.3345862    -0.7075919
C           5.3477334     0.1465737    -2.0902449
H           6.4355278     0.2354618    -2.1380508
H           4.8791259     0.8983251    -2.7262001
H           5.0588320    -0.8467359    -2.4525521
C           5.7818187     0.4693016     0.3470655
H           6.8526173     0.4492451     0.1966257
C           5.0519340     0.5948902     1.5152224
H           5.4524654     0.7228111     2.5118740
O           2.5525508     1.1020855    -2.2083045
25
285_C8H13N3O_1-0-14-10 (-30,) energy =    -552.1508850
C           2.4768115     0.3864097    -1.1442873
N           1.2401683    -0.0443455    -0.6326302
C           1.1520548    -1.3276993     0.0715355
H           1.0199294    -2.1558796    -0.6426112
H           0.2911346    -1.3219244     0.7488635
H           2.0501832    -1.5074734     0.6592836
C           0.0947233     0.2100864    -1.5030918
H           0.1728923     1.2110658    -1.9274894
H          -0.8216300     0.1308577    -0.9088136
H           0.0390805    -0.5078817    -2.3347358
C           3.6620765     0.5074304     1.1733215
N           2.5718187     0.5461242     2.0485364
H           1.7114335     0.8218001     1.5839478
H           2.7426587     1.1232826     2.8646691
C           3.6118564     0.3548037    -0.2226295
N           4.9331853     0.3705446    -0.6837182
C           5.3689719     0.2280222    -2.0654649
H           6.4616075     0.2115242    -2.0750556
H           4.9975625     1.0530446    -2.6743518
H           4.9961301    -0.7069660    -2.4949994
C           5.7668341     0.5002478     0.3805218
H           6.8389604     0.5101087     0.2386663
C           5.0262106     0.5953238     1.5451400
H           5.4176750     0.7107355     2.5468962
O           2.5609179     0.8468544    -2.2861417
25
285_C8H13N3O_1-0-14-10 (-15,) energy =    -552.1497286
C           2.5016185     0.2860199    -1.1566541
N           1.2390291    -0.0174110    -0.5896950
C           1.1040875    -1.3046873     0.1087595
H           0.9873809    -2.1316745    -0.6096991
H           0.2168437    -1.2826858     0.7505851
H           1.9731098    -1.4982441     0.7354169
C           0.1136755     0.2388205    -1.4891655
H           0.2184691     1.2277881    -1.9369050
H          -0.8115417     0.1982996    -0.9049623
H           0.0521610    -0.4974336    -2.3036587
C           3.6688060     0.4907990     1.1711420
N           2.5790617     0.5088692     2.0451823
H           1.7196606     0.7946990     1.5843090
H           2.7508365     1.0610598     2.8782130
C           3.6231127     0.3775710    -0.2310741
N           4.9499748     0.3992648    -0.6849368
C           5.4044289     0.2863672    -2.0643259
H           6.4973718     0.2716124    -2.0555034
H           5.0450250     1.1240024    -2.6634221
H           5.0364442    -0.6363498    -2.5206254
C           5.7753840     0.5202521     0.3850495
H           6.8477947     0.5529968     0.2485038
C           5.0294825     0.5858567     1.5486904
H           5.4158858     0.6901588     2.5536154
O           2.6000451     0.5734316    -2.3523693
25
285_C8H13N3O_1-0-14-10 (0,) energy =    -552.1469731
C           2.5114261     0.1595576    -1.1699250
N           1.2239654    -0.0078895    -0.5720137
C           1.0243310    -1.2925310     0.1232246
H           0.9204614    -2.1215977    -0.5950646
H           0.1085787    -1.2422829     0.7221037
H           1.8570583    -1.5027993     0.7938147
C           0.1259634     0.2647236    -1.5032130
H           0.2811275     1.2330519    -1.9820884
H          -0.8080354     0.2899427    -0.9321738
H           0.0412492    -0.4954500    -2.2927033
C           3.6713762     0.4733402     1.1507462
N           2.5871716     0.4666176     2.0284133
H           1.7249503     0.7588374     1.5765107
H           2.7610255     0.9911641     2.8785311
C           3.6179758     0.3848436    -0.2557453
N           4.9475078     0.4181892    -0.7121892
C           5.4084227     0.3342975    -2.0921300
H           6.5007077     0.3796247    -2.0795418
H           5.0097521     1.1564713    -2.6884473
H           5.0884786    -0.6015756    -2.5554780
C           5.7720377     0.5462117     0.3558961
H           6.8426041     0.6109287     0.2157008
C           5.0304893     0.5857803     1.5238646
H           5.4192771     0.6891300     2.5279612
O           2.6252697     0.2525547    -2.3938739
25
285_C8H13N3O_1-0-14-10 (15,) energy =    -552.1464096
C           2.5729952    -0.6760310    -0.8458606
N           1.2348489    -0.5643265    -0.3829426
C           0.3453048    -1.6111142    -0.8854208
H           0.1028471    -1.4812089    -1.9502734
H          -0.5832092    -1.5849429    -0.3052577
H           0.8206734    -2.5850997    -0.7638012
C           0.6144650     0.7654626    -0.4516209
H           1.3332821     1.5361706    -0.1731203
H          -0.2421267     0.8149250     0.2307534
H           0.2494981     0.9826830    -1.4684309
C           3.5322666     0.7608613     1.1166909
N           2.5463958     0.6362396     2.0915341
H           1.7004987     0.1823132     1.7715988
H           2.3728332     1.4654950     2.6444033
C           3.5717703     0.1067423    -0.1300382
N           4.8249170     0.3858915    -0.6976843
C           5.3170176    -0.0648984    -1.9918589
H           6.3137797     0.3595144    -2.1369930
H           4.6619952     0.2728487    -2.7999033
H           5.3643171    -1.1539275    -2.0311475
C           5.5154156     1.1924687     0.1467736
H           6.5115647     1.5275231    -0.1089330
C           4.7618614     1.4440117     1.2797443
H           5.0720895     2.0176848     2.1424760
O           2.8607395    -1.4751306    -1.7389422
25
285_C8H13N3O_1-0-14-10 (30,) energy =    -552.1477748
C           2.6107341    -0.7472191    -0.7657151
N           1.2572932    -0.5638145    -0.4224105
C           0.3530901    -1.6068077    -0.8992895
H           0.1228821    -1.4990742    -1.9697366
H          -0.5815899    -1.5485783    -0.3313126
H           0.8123255    -2.5838893    -0.7493214
C           0.6713788     0.7771638    -0.4844277
H           1.4215078     1.5298491    -0.2433798
H          -0.1617368     0.8618373     0.2236781
H           0.2788814     0.9885588    -1.4918405
C           3.5531469     0.7648477     1.1435054
N           2.5753077     0.6243627     2.1299001
H           1.7204806     0.1921031     1.8027441
H           2.4011281     1.4579219     2.6776079
C           3.5747632     0.1411088    -0.1152678
N           4.8214261     0.4165545    -0.6895056
C           5.2844027    -0.0175934    -1.9992610
H           6.2826467     0.3969503    -2.1596182
H           4.6188969     0.3448231    -2.7895382
H           5.3148801    -1.1063510    -2.0541937
C           5.5237493     1.2160245     0.1549592
H           6.5110697     1.5648528    -0.1157076
C           4.7848062     1.4483290     1.3010167
H           5.1038066     2.0126714     2.1667329
O           2.9490256    -1.6623721    -1.5189216
25
285_C8H13N3O_1-0-14-10 (45,) energy =    -552.1475407
C           2.6099998    -0.8322828    -0.7504278
N           1.2474643    -0.5939625    -0.5487215
C           0.3359387    -1.6400265    -0.9969329
H           0.1078829    -1.5527150    -2.0698438
H          -0.6008872    -1.5639041    -0.4340873
H           0.7921077    -2.6145149    -0.8252645
C           0.6845909     0.7523885    -0.5933195
H           1.4581849     1.4896579    -0.3805311
H          -0.1253923     0.8583808     0.1392984
H           0.2649689     0.9654556    -1.5888764
C           3.5478715     0.7251844     1.1144182
N           2.5787643     0.5691298     2.1103856
H           1.7098514     0.1698976     1.7775610
H           2.4199425     1.3963310     2.6729647
C           3.5416012     0.1416542    -0.1612095
N           4.7854790     0.4081494    -0.7411528
C           5.2081054     0.0143853    -2.0762207
H           6.2549694     0.2999388    -2.2027116
H           4.6101801     0.5186542    -2.8449311
H           5.0956450    -1.0632852    -2.1986303
C           5.5063359     1.1883942     0.1077423
H           6.4857950     1.5477035    -0.1773320
C           4.7860792     1.3998719     1.2688524
H           5.1206564     1.9435668     2.1419297
O           2.9915293    -1.8364727    -1.3554883
25
285_C8H13N3O_1-0-14-10 (60,) energy =    -552.1457470
C           2.5803343    -0.8515491    -0.6660543
N           1.2207718    -0.5707435    -0.6506322
C           0.3046030    -1.6199553    -1.0736514
H           0.0296921    -1.5093844    -2.1331183
H          -0.6116550    -1.5739127    -0.4732143
H           0.7886560    -2.5867938    -0.9419643
C           0.6688329     0.7756791    -0.6521385
H           1.4580648     1.5008171    -0.4544488
H          -0.1180429     0.8813015     0.1068623
H           0.2196979     1.0042792    -1.6303249
C           3.5252428     0.7506595     1.1534147
N           2.5688269     0.5946127     2.1663208
H           1.6825870     0.2305539     1.8374143
H           2.4303977     1.4253946     2.7302430
C           3.4829614     0.1917155    -0.1298780
N           4.7200318     0.4463127    -0.7273678
C           5.1113593     0.0460402    -2.0688259
H           6.1688336     0.2832014    -2.2058998
H           4.5294691     0.5815310    -2.8292989
H           4.9537106    -1.0265385    -2.1930188
C           5.4667261     1.2121914     0.1141654
H           6.4394091     1.5732596    -0.1910615
C           4.7710666     1.4164028     1.2907194
H           5.1247597     1.9517246     2.1614891
O           3.0042070    -1.9227216    -1.1053341
25
285_C8H13N3O_1-0-14-10 (75,) energy =    -552.1427288
C           2.5583930    -0.8332452    -0.5234042
N           1.2251218    -0.5269468    -0.7220998
C           0.3138615    -1.5837900    -1.1327840
H          -0.0185763    -1.4314807    -2.1693096
H          -0.5735030    -1.5948098    -0.4866753
H           0.8360294    -2.5371929    -1.0642660
C           0.6638771     0.8113464    -0.6690862
H           1.4550326     1.5342711    -0.4684501
H          -0.1078552     0.8928512     0.1100730
H           0.1916903     1.0609268    -1.6297764
C           3.5283356     0.8049037     1.2566452
N           2.5979398     0.6521205     2.2978810
H           1.6855102     0.3407100     1.9850443
H           2.5038209     1.4802999     2.8756205
C           3.4393660     0.2610411    -0.0282684
N           4.6594817     0.5120938    -0.6608123
C           5.0150971     0.0846655    -2.0025642
H           6.0642412     0.3316047    -2.1796005
H           4.4024028     0.5922931    -2.7579497
H           4.8726116    -0.9941514    -2.0961319
C           5.4388518     1.2678823     0.1616491
H           6.4008015     1.6305273    -0.1740428
C           4.7798951     1.4675485     1.3592003
H           5.1583468     2.0031290     2.2194313
O           3.0078085    -1.9484773    -0.7934868
25
285_C8H13N3O_1-0-14-10 (90,) energy =    -552.1391766
C           2.5536842    -0.9019580    -0.3960498
N           1.2796078    -0.5699116    -0.8070223
C           0.3765607    -1.6245471    -1.2417537
H           0.0792949    -1.4673686    -2.2873124
H          -0.5324620    -1.6343777    -0.6253900
H           0.8935872    -2.5788619    -1.1508769
C           0.7423334     0.7791956    -0.8325492
H           1.5150622     1.4869639    -0.5311896
H          -0.1190340     0.8745785    -0.1559323
H           0.4003450     1.0331820    -1.8454754
C           3.6042305     0.7545763     1.3332206
N           2.7496129     0.5783919     2.4376283
H           1.8317048     0.2306442     2.1821159
H           2.6494353     1.4189655     2.9971547
C           3.4401447     0.2190154     0.0570048
N           4.5993234     0.5112878    -0.6632403
C           4.8779814     0.0645752    -2.0151588
H           5.9052166     0.3353899    -2.2687502
H           4.2021554     0.5346245    -2.7405910
H           4.7672710    -1.0214949    -2.0789028
C           5.4204086     1.2808738     0.1087648
H           6.3460513     1.6701228    -0.2925029
C           4.8416369     1.4546538     1.3496054
H           5.2622072     2.0000578     2.1837780
O           2.9770040    -2.0552967    -0.4688202
25
285_C8H13N3O_1-0-14-10 (105,) energy =    -552.1397698
C           2.5490747    -0.9440128     0.0350763
N           1.5427180    -0.4764624    -0.7913421
C           0.4515954    -1.3767058    -1.1336269
H           0.2254911    -1.3029465    -2.2048086
H          -0.4593944    -1.1242821    -0.5719181
H           0.7458003    -2.3947436    -0.8822075
C           1.3513923     0.9131501    -1.1733955
H           2.1426878     1.5370569    -0.7612466
H           0.3859376     1.2763943    -0.7929127
H           1.3422626     1.0257198    -2.2665460
C           3.8223317     0.6292700     1.5950804
N           3.2278305     0.2605607     2.8095114
H           2.6048475    -0.5347962     2.7110200
H           2.7717296     1.0236931     3.2977982
C           3.6565052    -0.0137307     0.3705023
N           4.4515355     0.6527516    -0.5655658
C           4.7589512     0.1579691    -1.8957039
H           5.1876238     0.9710577    -2.4874651
H           3.8456623    -0.1881343    -2.3873900
H           5.4727651    -0.6743053    -1.8620170
C           5.1344396     1.6526305     0.0735658
H           5.8762547     2.2353174    -0.4556673
C           4.7617866     1.6817783     1.4014132
H           5.1303583     2.3619697     2.1572808
O           2.4671576    -2.0504481     0.5751462
25
285_C8H13N3O_1-0-14-10 (120,) energy =    -552.1437282
C           2.4929654    -0.8637288     0.0650757
N           1.5949227    -0.5011912    -0.9290698
C           0.4877594    -1.4117227    -1.1881076
H           0.2052765    -1.3489517    -2.2453443
H          -0.3928161    -1.1613507    -0.5776927
H           0.7938741    -2.4279852    -0.9432838
C           1.3740871     0.8686928    -1.3707364
H           2.1995928     1.5102517    -1.0675780
H           0.4445180     1.2672662    -0.9363201
H           1.2767689     0.9095446    -2.4633668
C           3.8465329     0.6068736     1.6180313
N           3.2936555     0.1800241     2.8238551
H           2.6428958    -0.5902756     2.7015935
H           2.9139541     0.9191083     3.4042697
C           3.6279542     0.0244677     0.3662410
N           4.3978269     0.7339990    -0.5664334
C           4.7316166     0.2516073    -1.8968938
H           5.1023510     1.0871222    -2.4971734
H           3.8403917    -0.1593594    -2.3764380
H           5.4998956    -0.5308648    -1.8603220
C           5.1090624     1.6941138     0.1007268
H           5.8422915     2.2939616    -0.4218064
C           4.7806424     1.6664830     1.4398570
H           5.1751553     2.3140730     2.2110980
O           2.2866152    -1.8616394     0.7671541
25
285_C8H13N3O_1-0-14-10 (135,) energy =    -552.1469148
C           2.4029538    -0.7960667     0.1437634
N           1.5974255    -0.5516514    -0.9669787
C           0.4931405    -1.4808152    -1.1756549
H           0.2134115    -1.4697771    -2.2349487
H          -0.3897724    -1.2092607    -0.5775460
H           0.8027720    -2.4840660    -0.8848146
C           1.3426066     0.7945053    -1.4693298
H           2.1597785     1.4654501    -1.2093469
H           0.4113524     1.1992797    -1.0427938
H           1.2322298     0.7774517    -2.5606204
C           3.8783540     0.5727302     1.6660066
N           3.3660611     0.1250298     2.8740586
H           2.6584214    -0.5946593     2.7562894
H           3.1063592     0.8483420     3.5336589
C           3.5618663     0.0593153     0.4012820
N           4.3305256     0.7623153    -0.5429039
C           4.6553142     0.2648759    -1.8726907
H           5.0011939     1.0976724    -2.4919183
H           3.7667625    -0.1735228    -2.3296436
H           5.4403368    -0.5008955    -1.8329217
C           5.1177023     1.6575150     0.1294225
H           5.8546141     2.2429915    -0.4044750
C           4.8515348     1.5960156     1.4801907
H           5.3094144     2.1984721     2.2530595
O           2.1090648    -1.6932612     0.9471879
25
285_C8H13N3O_1-0-14-10 (150,) energy =    -552.1483513
C           2.3178992    -0.6810507     0.1788918
N           1.6076961    -0.5528806    -1.0205819
C           0.5256887    -1.5129562    -1.2126318
H           0.2791541    -1.5559554    -2.2791319
H          -0.3800144    -1.2345821    -0.6530035
H           0.8450519    -2.4966262    -0.8690534
C           1.3164003     0.7667678    -1.5784668
H           2.1032812     1.4758417    -1.3243408
H           0.3618434     1.1556592    -1.1894028
H           1.2346330     0.7050704    -2.6703331
C           3.9075399     0.5625452     1.6907431
N           3.4193424     0.0920340     2.8930827
H           2.6467893    -0.5583675     2.7802467
H           3.2976964     0.7784841     3.6265147
C           3.4929912     0.1463650     0.4157581
N           4.2805146     0.8338324    -0.5300317
C           4.5968727     0.3256299    -1.8610094
H           4.9494844     1.1520629    -2.4853594
H           3.7057496    -0.1105535    -2.3119208
H           5.3759911    -0.4460846    -1.8165770
C           5.1505159     1.6401547     0.1538258
H           5.9027243     2.2034600    -0.3828912
C           4.9378788     1.5300929     1.5096881
H           5.4627400     2.0671220     2.2882972
O           1.9484800    -1.4949998     1.0401314
25
285_C8H13N3O_1-0-14-10 (165,) energy =    -552.1474587
C           2.2765441    -0.5311881     0.3361224
N           1.6561340    -0.5603409    -0.9247991
C           0.6620310    -1.6168975    -1.0939763
H           0.4513301    -1.7270409    -2.1631625
H          -0.2788441    -1.3943194    -0.5688993
H           1.0539585    -2.5548951    -0.7003280
C           1.2475077     0.7050525    -1.5404688
H           1.9489877     1.5000422    -1.2877158
H           0.2460649     1.0074468    -1.1944961
H           1.2102148     0.5989511    -2.6311205
C           3.9131404     0.6694131     1.8320231
N           3.4744650     0.1520570     3.0292268
H           2.6705062    -0.4613691     2.9309808
H           3.4573174     0.7825120     3.8197409
C           3.4188195     0.3391361     0.5582190
N           4.1917627     1.0458526    -0.3918018
C           4.5203588     0.5440245    -1.7255894
H           5.3182136    -0.2082986    -1.6775079
H           4.8558524     1.3789413    -2.3483524
H           3.6447960     0.0833567    -2.1790054
C           5.1060775     1.8004591     0.2961324
H           5.8438807     2.3786111    -0.2450498
C           4.9545893     1.6261650     1.6515718