18
318_C6H10N2_0-4-10-9 (-165,) energy =    -344.1550305
C           1.1163024    -0.6868098    -0.3888927
H           0.9226460    -0.9173670     0.6626950
H           0.4250894    -1.2932531    -0.9839049
H           0.8598418     0.3646242    -0.5628129
C           2.5563643    -1.0058224    -0.8088987
H           2.6518153    -0.8994861    -1.8948341
H           2.7479577    -2.0696522    -0.6065742
C           5.7226144     0.4856032     0.0452880
H           6.7712074     0.6238430    -0.1831919
N           4.9035638    -0.2573055    -0.7673379
C           3.6998391    -0.2138484    -0.2191686
N           3.7150253     0.5317178     0.9415670
C           2.6526488     0.8001154     1.9016934
H           1.7992808     1.2895696     1.4272746
H           3.0480578     1.4675484     2.6699816
H           2.3114322    -0.1191729     2.3880948
C           5.0155309     0.9816658     1.1060938
H           5.2889015     1.6078340     1.9428272
18
318_C6H10N2_0-4-10-9 (-150,) energy =    -344.1568064
C           1.0964819    -0.6070015    -0.4984476
H           0.7922930    -0.6617493     0.5503563
H           0.4049905    -1.2387239    -1.0664247
H           0.9572167     0.4252279    -0.8405431
C           2.5369065    -1.0902021    -0.7250525
H           2.7256205    -1.2073063    -1.7964130
H           2.6362938    -2.0997735    -0.2968413
C           5.6656389     0.5597501    -0.0357909
H           6.6944917     0.7528561    -0.3095128
N           4.8493767    -0.2189885    -0.8183526
C           3.6704119    -0.2362749    -0.2176208
N           3.7026726     0.4960889     0.9507087
C           2.6643784     0.6851975     1.9534239
H           1.8238962     1.2631888     1.5590629
H           3.0948258     1.2303656     2.7958563
H           2.2935585    -0.2760934     2.3219805
C           4.9834737     1.0112891     1.0613349
H           5.2632741     1.6443335     1.8908780
18
318_C6H10N2_0-4-10-9 (-135,) energy =    -344.1589360
C           1.1129043    -0.5324159    -0.6050911
H           0.7606371    -0.3183516     0.4078545
H           0.4036384    -1.2375917    -1.0522234
H           1.0669209     0.3984153    -1.1817039
C           2.5298068    -1.1306769    -0.6273916
H           2.7857854    -1.4471674    -1.6423029
H           2.5350982    -2.0452282    -0.0133452
C           5.6112279     0.6711609    -0.1134709
H           6.6125260     0.9215370    -0.4380752
N           4.7990142    -0.1472752    -0.8606707
C           3.6581717    -0.2348836    -0.1966905
N           3.7154138     0.4824593     0.9792299
C           2.7128443     0.5946080     2.0268179
H           1.9170449     1.2963657     1.7554309
H           3.1974092     0.9520134     2.9381608
H           2.2680305    -0.3818265     2.2376710
C           4.9671010     1.0714434     1.0263932
H           5.2588950     1.7063057     1.8504898
18
318_C6H10N2_0-4-10-9 (-120,) energy =    -344.1608143
C           1.1460959    -0.4806191    -0.7401511
H           0.7749723    -0.0276589     0.1849723
H           0.3959314    -1.2054901    -1.0754658
H           1.2139502     0.3097565    -1.4954819
C           2.5083947    -1.1713099    -0.5481680
H           2.8202905    -1.6454353    -1.4827345
H           2.3996303    -1.9801439     0.1906851
C           5.5373851     0.7493388    -0.1428263
H           6.5098608     1.0572213    -0.5035863
N           4.7409518    -0.1050313    -0.8683624
C           3.6399961    -0.2670345    -0.1545653
N           3.7053885     0.4399914     1.0261034
C           2.7224858     0.4938880     2.0950181
H           1.9751093     1.2768831     1.9224189
H           3.2320858     0.6981292     3.0400049
H           2.2112141    -0.4679082     2.1832931
C           4.9218132     1.0993986     1.0295532
H           5.2169994     1.7335818     1.8529577
18
318_C6H10N2_0-4-10-9 (-105,) energy =    -344.1616911
C           1.1850689    -0.4644623    -0.8543883
H           0.8019894     0.1449765    -0.0278064
H           0.3945927    -1.1655496    -1.1451085
H           1.3781482     0.2030501    -1.7005102
C           2.4662026    -1.2238378    -0.4627565
H           2.8013360    -1.8368497    -1.3043062
H           2.2445309    -1.9158729     0.3622674
C           5.4733258     0.7554508    -0.2006662
H           6.4123856     1.1001464    -0.6130564
N           4.6670634    -0.1208008    -0.8888521
C           3.6225324    -0.3368023    -0.1083177
N           3.7288648     0.3648351     1.0720412
C           2.7795622     0.4117318     2.1704301
H           2.0630643     1.2331780     2.0520176
H           3.3190044     0.5489045     3.1113931
H           2.2277990    -0.5293731     2.2258080
C           4.9169369     1.0710317     1.0108824
H           5.2389512     1.7060903     1.8234644
18
318_C6H10N2_0-4-10-9 (-90,) energy =    -344.1616275
C           1.2181191    -0.4497744    -0.9980643
H           0.8141672     0.2878135    -0.2944441
H           0.4081984    -1.1379319    -1.2656266
H           1.5300528     0.0838715    -1.9012772
C           2.4095217    -1.2170827    -0.3953909
H           2.7673437    -1.9542066    -1.1211158
H           2.0819735    -1.7789260     0.4888528
C           5.3845401     0.8178005    -0.2429388
H           6.2861714     1.2015803    -0.7018277
N           4.5623206    -0.0624430    -0.9058401
C           3.5790635    -0.3374139    -0.0664405
N           3.7373573     0.3352482     1.1250106
C           2.8435809     0.3504785     2.2700225
H           2.0988386     1.1513665     2.1906007
H           3.4258940     0.5013349     3.1828308
H           2.3222658    -0.6057411     2.3507934
C           4.8971414     1.0811263     1.0101516
H           5.2529042     1.7000789     1.8210003
18
318_C6H10N2_0-4-10-9 (-75,) energy =    -344.1613010
C           1.2775855    -0.3143802    -1.0979990
H           0.8610556     0.5315882    -0.5386188
H           0.4536493    -0.9889360    -1.3573267
H           1.7116847     0.0764229    -2.0230933
C           2.3538663    -1.0527721    -0.2814502
H           2.7114126    -1.9131373    -0.8580730
H           1.9167527    -1.4532077     0.6412034
C           5.3370948     0.9760492    -0.1603796
H           6.2086866     1.3994107    -0.6418761
N           4.4764513     0.1454964    -0.8383094
C           3.5408064    -0.1893583     0.0328828
N           3.7599950     0.4041445     1.2543613
C           2.9608052     0.2673352     2.4611320
H           1.9182665     0.5429260     2.2740700
H           3.3612152     0.9358488     3.2257968
H           2.9921438    -0.7580952     2.8454158
C           4.9188639     1.1508279     1.1328803
H           5.3197861     1.7111293     1.9648385
18
318_C6H10N2_0-4-10-9 (-60,) energy =    -344.1611228
C           1.3251443    -0.3565386    -1.2566957
H           0.8900664     0.5767269    -0.8815124
H           0.5061046    -1.0432876    -1.4984882
H           1.8721580    -0.1262808    -2.1751940
C           2.2756408    -0.9820510    -0.2222481
H           2.6296779    -1.9495983    -0.6006879
H           1.7328866    -1.1946522     0.7060370
C           5.2664229     1.0414893    -0.1797642
H           6.1096853     1.4859978    -0.6917241
N           4.3534001     0.2603513    -0.8471511
C           3.4693776    -0.1146469     0.0607794
N           3.7766549     0.4000552     1.2988381
C           3.0561746     0.2060056     2.5469699
H           2.0103309     0.5130651     2.4485721
H           3.5227566     0.8197431     3.3199807
H           3.0892981    -0.8407909     2.8678274
C           4.9350972     1.1421854     1.1459847
H           5.3925705     1.6531919     1.9804367
18
318_C6H10N2_0-4-10-9 (-45,) energy =    -344.1613098
C           1.3694598    -0.4144964    -1.3858273
H           0.9567789     0.5862489    -1.2181441
H           0.5391736    -1.1005849    -1.5866464
H           2.0094751    -0.3666741    -2.2706635
C           2.1812162    -0.8851972    -0.1705068
H           2.5083170    -1.9222892    -0.3329141
H           1.5411068    -0.9061626     0.7197431
C           5.1931247     1.1104757    -0.1913413
H           6.0122145     1.5748977    -0.7243936
N           4.2240121     0.3924461    -0.8509527
C           3.3858808    -0.0227955     0.0823665
N           3.7793850     0.4016683     1.3305021
C           3.1370853     0.1283570     2.6058652
H           2.0915485     0.4519227     2.5959492
H           3.6601559     0.6824187     3.3877860
H           3.1745433    -0.9386070     2.8510983
C           4.9434446     1.1299384     1.1555712
H           5.4578786     1.5814831     1.9911958
18
318_C6H10N2_0-4-10-9 (-30,) energy =    -344.1617264
C           1.4253192    -0.4824960    -1.4737036
H           1.0641082     0.5504251    -1.5101703
H           0.5741714    -1.1534252    -1.6327852
H           2.1359356    -0.6116174    -2.2938380
C           2.0996710    -0.7784239    -0.1289558
H           2.3713946    -1.8441715    -0.0821040
H           1.3836889    -0.6181744     0.6881030
C           5.1347950     1.1852119    -0.2010428
H           5.9317722     1.6728418    -0.7466514
N           4.1208114     0.5217089    -0.8519238
C           3.3247001     0.0620801     0.0966325
N           3.7895813     0.4025038     1.3461137
C           3.2059623     0.0515798     2.6297731
H           2.1671387     0.3911036     2.6939538
H           3.7769842     0.5399897     3.4218524
H           3.2331517    -1.0308473     2.7971398
C           4.9560189     1.1228484     1.1556257
H           5.5207283     1.5140134     1.9893133
18
318_C6H10N2_0-4-10-9 (-15,) energy =    -344.1621280
C           1.4788176    -0.5463574    -1.5319128
H           1.2271711     0.4917690    -1.7688368
H           0.5780781    -1.1591011    -1.6455083
H           2.2236754    -0.8751347    -2.2611475
C           2.0270726    -0.6630912    -0.1065986
H           2.2258191    -1.7206815     0.1275077
H           1.2587411    -0.3425473     0.6119796
C           5.0829102     1.2692182    -0.2157275
H           5.8596252     1.7812969    -0.7680256
N           4.0323021     0.6540392    -0.8575564
C           3.2784868     0.1420710     0.0980227
N           3.8047137     0.4016792     1.3425090
C           3.2675306    -0.0206616     2.6239803
H           2.2345679     0.3215006     2.7462888
H           3.8720278     0.4139092     3.4225665
H           3.2892138    -1.1117668     2.7241754
C           4.9663643     1.1267064     1.1415545
H           5.5727405     1.4633258     1.9698367
18
318_C6H10N2_0-4-10-9 (0,) energy =    -344.1622845
C           1.5335698    -0.6235802    -1.5545392
H           1.3988451     0.3794040    -1.9686883
H           0.5907986    -1.1730619    -1.6486524
H           2.2939832    -1.1249383    -2.1597721
C           1.9642438    -0.5534883    -0.0869971
H           2.0759908    -1.5720950     0.3152637
H           1.1652105    -0.0886053     0.5108742
C           5.0389216     1.3474084    -0.2189050
H           5.7962762     1.8852753    -0.7735145
N           3.9600840     0.7723101    -0.8516829
C           3.2450716     0.2072257     0.1033783
N           3.8212210     0.3961039     1.3383097
C           3.3250080    -0.0897730     2.6134062
H           2.3036868     0.2617593     2.7945289
H           3.9673422     0.2868632     3.4118484
H           3.3294105    -1.1851283     2.6495254
C           4.9762564     1.1300209     1.1320212
H           5.6189773     1.4151014     1.9522324
18
318_C6H10N2_0-4-10-9 (15,) energy =    -344.1621188
C           1.5848935    -0.7018549    -1.5574663
H           1.5734185     0.2326458    -2.1241299
H           0.6077513    -1.1870448    -1.6546545
H           2.3420640    -1.3487463    -2.0108985
C           1.9052637    -0.4374304    -0.0832635
H           1.9198767    -1.3882565     0.4689376
H           1.0942429     0.1541208     0.3698754
C           5.0015991     1.4277030    -0.2124564
H           5.7434490     1.9929817    -0.7607536
N           3.8978024     0.8962464    -0.8397282
C           3.2143877     0.2751282     0.1038525
N           3.8344461     0.3879196     1.3267092
C           3.3770361    -0.1615850     2.5908951
H           2.3730316     0.2011907     2.8354372
H           4.0606974     0.1523618     3.3820717
H           3.3567305    -1.2568163     2.5628488
C           4.9853790     1.1293630     1.1243450
H           5.6603039     1.3585314     1.9361549
18
318_C6H10N2_0-4-10-9 (30,) energy =    -344.1617171
C           1.6321609    -0.7814003    -1.5335485
H           1.7491001     0.0542674    -2.2280069
H           0.6303200    -1.2070461    -1.6562053
H           2.3686317    -1.5436319    -1.8080753
C           1.8443281    -0.3117736    -0.0895115
H           1.7524701    -1.1652976     0.5952607
H           1.0389694     0.3843094     0.1910873
C           4.9660851     1.5092552    -0.1940761
H           5.6977426     2.1000352    -0.7291267
N           3.8345665     1.0340334    -0.8153579
C           3.1760072     0.3562062     0.1074142
N           3.8390989     0.3797205     1.3125682
C           3.4229818    -0.2402655     2.5593135
H           2.4448274     0.1345918     2.8782538
H           4.1543685    -0.0002112     3.3334795
H           3.3673592    -1.3298858     2.4610208
C           4.9906752     1.1229334     1.1199773
H           5.6957880     1.2898082     1.9211688
18
318_C6H10N2_0-4-10-9 (45,) energy =    -344.1613059
C           1.6789233    -0.8703864    -1.4587111
H           1.9057858    -0.1597733    -2.2577182
H           0.6694261    -1.2668318    -1.6141775
H           2.3906857    -1.6993008    -1.5375241
C           1.7870772    -0.1809589    -0.0909956
H           1.5827036    -0.9041545     0.7077230
H           1.0061580     0.5889137    -0.0109355
C           4.9302148     1.5999748    -0.1582217
H           5.6512803     2.2198958    -0.6744439
N           3.7696809     1.1895417    -0.7703408
C           3.1313206     0.4560185     0.1242394
N           3.8381330     0.3786042     1.3018769
C           3.4630592    -0.3247604     2.5178698
H           2.5158062     0.0525346     2.9167101
H           4.2404736    -0.1671313     3.2679630
H           3.3679249    -1.4010926     2.3396589
C           4.9966072     1.1142713     1.1211010
H           5.7334737     1.2091548     1.9052120
18
318_C6H10N2_0-4-10-9 (60,) energy =    -344.1611229
C           1.7214290    -0.9659785    -1.3465099
H           2.0539791    -0.4074046    -2.2258757
H           0.7131704    -1.3514012    -1.5358218
H           2.3955915    -1.8200953    -1.2161261
C           1.7343451    -0.0534372    -0.1087759
H           1.4093136    -0.6152121     0.7745063
H           1.0015302     0.7513838    -0.2501456
C           4.8987136     1.6860439    -0.1193660
H           5.6155652     2.3327526    -0.6078889
N           3.7088785     1.3524685    -0.7212256
C           3.0814385     0.5656400     0.1352653
N           3.8256142     0.3760254     1.2764580
C           3.4785261    -0.4206508     2.4424249
H           2.5597110    -0.0548198     2.9122261
H           4.2894675    -0.3487620     3.1697680
H           3.3449287    -1.4744161     2.1766102
C           4.9958421     1.0973835     1.1141784
H           5.7589418     1.1151993     1.8784405
18
318_C6H10N2_0-4-10-9 (75,) energy =    -344.1613010
C           1.4784358    -1.7125196    -0.2237998
H           2.1474589    -2.5746508    -0.3018832
H           0.5576559    -1.9348202    -0.7750853
H           1.2186681    -1.5832302     0.8334911
C           2.1672493    -0.4579809    -0.7911694
H           1.4938210     0.4047064    -0.7206640
H           2.3682461    -0.6125204    -1.8571701
C           5.5262755    -0.2654535     0.5172823
H           6.5466815    -0.6238053     0.5504380
N           4.5961541    -0.8269680    -0.3251778
C           3.4754363    -0.1575127    -0.1192479
N           3.6442015     0.8171833     0.8365877
C           2.6511691     1.7615449     1.3222010
H           2.3316039     2.4460217     0.5288400
H           3.0909261     2.3497211     2.1299890
H           1.7723075     1.2400389     1.7142304
C           4.9652557     0.7520771     1.2438188
H           5.3601418     1.4256324     1.9902773
18
318_C6H10N2_0-4-10-9 (90,) energy =    -344.1616322
C           1.5271679    -1.5267800    -0.1678612
H           2.1191500    -2.4421329    -0.0700894
H           0.6307160    -1.7560526    -0.7551615
H           1.2039413    -1.2266676     0.8360059
C           2.3595318    -0.4251462    -0.8498733
H           1.7486848     0.4779154    -0.9773803
H           2.6431165    -0.7572587    -1.8535196
C           5.6742591    -0.1775211     0.5526746
H           6.7105304    -0.4878109     0.5782694
N           4.7895193    -0.7099322    -0.3551422
C           3.6347853    -0.1088928    -0.1264038
N           3.7411375     0.8013103     0.9017425
C           2.6890748     1.6112823     1.4910787
H           1.9559133     1.8862147     0.7295408
H           3.1231759     2.5292220     1.8956587
H           2.1737973     1.0790758     2.2995272
C           5.0525247     0.7549451     1.3407965
H           5.4013871     1.3866072     2.1448042
18
318_C6H10N2_0-4-10-9 (105,) energy =    -344.1616882
C           1.4581777    -1.4002693    -0.1236610
H           1.9596199    -2.3382317     0.1362521
H           0.5809362    -1.6393465    -0.7353612
H           1.1008440    -0.9427610     0.8060322
C           2.4165916    -0.4700031    -0.8902195
H           1.8848249     0.4490007    -1.1756531
H           2.7307832    -0.9522029    -1.8202658
C           5.7279865    -0.1007211     0.4981508
H           6.7814405    -0.3475631     0.4988609
N           4.8636398    -0.6514952    -0.4189659
C           3.6764180    -0.1381584    -0.1471846
N           3.7430523     0.7377929     0.9135050
C           2.6551791     1.4808708     1.5252442
H           1.9019172     1.7268823     0.7730692
H           3.0430941     2.4147557     1.9402542
H           2.1760378     0.9103293     2.3296030
C           5.0617460     0.7587101     1.3314959
H           5.3827966     1.3775746     2.1568413
18
318_C6H10N2_0-4-10-9 (120,) energy =    -344.1608147
C           1.3954276    -1.2899005    -0.1033858
H           1.8017823    -2.2163289     0.3166294
H           0.5531428    -1.5536288    -0.7526942
H           0.9980098    -0.6939902     0.7247390
C           2.4713712    -0.5346039    -0.9041782
H           2.0240820     0.3720735    -1.3399328
H           2.8089933    -1.1475332    -1.7443392
C           5.7765685    -0.0015815     0.4446217
H           6.8438390    -0.1763108     0.4121114
N           4.9258554    -0.5901380    -0.4611385
C           3.7122231    -0.1762862    -0.1392393
N           3.7499847     0.6828827     0.9371931
C           2.6421051     1.3811406     1.5669599
H           1.8864509     1.6361683     0.8198924
H           3.0099314     2.3092852     2.0116016
H           2.1729879     0.7769698     2.3520584
C           5.0762944     0.7889568     1.3167904
H           5.3763643     1.4067231     2.1508476
18
318_C6H10N2_0-4-10-9 (135,) energy =    -344.1589359
C           1.3218352    -1.1733694    -0.1078132
H           1.6356829    -2.0105922     0.5259039
H           0.5458637    -1.5418207    -0.7877906
H           0.8571805    -0.4205977     0.5351557
C           2.5046144    -0.6149865    -0.9172838
H           2.1496629     0.2399019    -1.5145060
H           2.8511334    -1.3623129    -1.6364209
C           5.8041832     0.1013121     0.3501259
H           6.8782882    -0.0024609     0.2714707
N           4.9566377    -0.5302352    -0.5277362
C           3.7308924    -0.2096691    -0.1471288
N           3.7577344     0.6384213     0.9394625
C           2.6445466     1.2789996     1.6218229
H           1.9227796     1.6664021     0.8974461
H           3.0280001     2.1201568     2.2036343
H           2.1315199     0.5892139     2.3003649
C           5.0898152     0.8293050     1.2634277
H           5.3819078     1.4489251     2.0989402
18
318_C6H10N2_0-4-10-9 (150,) energy =    -344.1568064
C           1.2716480    -1.0410098    -0.1177157
H           1.4720984    -1.7246362     0.7155923
H           0.5504570    -1.5314948    -0.7803955
H           0.7825674    -0.1493589     0.2838821
C           2.5505285    -0.7140158    -0.9033173
H           2.3028380     0.0298619    -1.6764791
H           2.8890331    -1.6003057    -1.4483400
C           5.8291542     0.1909015     0.2874090
H           6.9041989     0.1475947     0.1727078
N           4.9891620    -0.4796383    -0.5669222
C           3.7599715    -0.2354157    -0.1419564
N           3.7758015     0.5965319     0.9580409
C           2.6629014     1.1749983     1.6970189
H           1.9925623     1.7266296     1.0308420
H           3.0648949     1.8749316     2.4323265
H           2.0883352     0.4088679     2.2251333
C           5.1062638     0.8632884     1.2351794
H           5.3908956     1.4840366     2.0723350
18
318_C6H10N2_0-4-10-9 (165,) energy =    -344.1550305
C           1.2107433    -0.9450082    -0.1849865
H           1.2866162    -1.5136014     0.7490256
H           0.5072017    -1.4772045    -0.8341252
H           0.7656137     0.0282252     0.0415904
C           2.5628838    -0.8251035    -0.8984839
H           2.4168518    -0.2440751    -1.8206853
H           2.8878156    -1.8160221    -1.2335838
C           5.7930830     0.3350298     0.1963719
H           6.8636117     0.3712666     0.0429447
N           4.9728614    -0.3843297    -0.6360042
C           3.7448056    -0.2336551    -0.1665317
N           3.7409548     0.5780075     0.9491100
C           2.6287018     1.0691207     1.7516922
H           1.9667912     1.7144322     1.1655280
H           3.0367412     1.6561575     2.5769122
H           2.0445108     0.2470087     2.1708599
C           5.0589671     0.9387274     1.1803029
H           5.3281714     1.5675357     2.0164039
18
318_C6H10N2_0-4-10-9 (180,) energy =    -344.1541767
C           1.1928671    -0.8031635    -0.2617042
H           1.1235335    -1.2307727     0.7439470
H           0.4994620    -1.3627279    -0.8985386
H           0.8321349     0.2297940    -0.2209812
C           2.6051888    -0.9085512    -0.8471078
H           2.5848661    -0.5492324    -1.8838647
H           2.8796627    -1.9685571    -0.9199182
C           5.7941970     0.4403191     0.1491026
H           6.8558854     0.5325947    -0.0385201
N           4.9821737    -0.2973512    -0.6747876
C           3.7622267    -0.2072061    -0.1704256
N           3.7568647     0.5727987     0.9675203
C           2.6605634     0.9616570     1.8455096
H           1.9233560     1.5756621     1.3205502
H           3.0752021     1.5501398     2.6662670
H           2.1590086     0.0886857     2.2697698
C           5.0644781     0.9875669     1.1683107
H           5.3284327     1.6181640     2.0046577
