29
020_C10H16N3+_0-9-10-22 (-165,) energy =    -554.7126225
C           0.0224365    -0.5470290    -1.4290682
H           0.0729752    -1.1489291    -2.3326482
C          -1.2009806    -0.0864494    -0.9502138
H          -2.1212558    -0.3239421    -1.4758182
C          -1.2221218     0.6782640     0.2167832
H          -2.1515479     1.0566977     0.6296235
C          -0.0097243     0.9502601     0.8448917
H           0.0204743     1.5485491     1.7532061
N           1.1753168     0.5129953     0.3917884
C           1.1880940    -0.2288461    -0.7224189
C           2.5323639    -0.7150782    -1.2575765
H           2.7741867    -0.1652483    -2.1867578
H           2.4244111    -1.7655520    -1.5486967
N           6.1293616    -0.2513300     1.0220408
H           6.7479327     0.0910802     0.2759680
H           6.6981722    -0.2924913     1.8749060
C           4.9829627     0.7380741     1.1948740
H           5.4286689     1.7170196     1.3859923
H           4.4134632     0.4050200     2.0646361
C           4.1160433     0.7172690    -0.0541641
H           4.6826639     1.1255482    -0.9169454
H           3.2566855     1.3625875     0.1361925
N           3.6314864    -0.6362546    -0.2917425
C           4.7313095    -1.5425501    -0.5722467
H           5.3334690    -1.2470794    -1.4571258
H           4.3453476    -2.5471494    -0.7713858
C           5.6387027    -1.6418239     0.6509518
H           6.5203649    -2.2622580     0.4729349
H           5.0866303    -2.0126581     1.5166908
29
020_C10H16N3+_0-9-10-22 (-150,) energy =    -554.7129373
C           0.0275797    -0.7078584    -1.3214408
H           0.0871694    -1.4462116    -2.1163596
C          -1.2088872    -0.2713125    -0.8498425
H          -2.1286861    -0.6633620    -1.2739473
C          -1.2418518     0.6691945     0.1787543
H          -2.1808103     1.0360232     0.5803304
C          -0.0289574     1.1331856     0.6840984
H          -0.0095155     1.8692765     1.4851072
N           1.1652229     0.7259563     0.2322056
C           1.1926862    -0.1847089    -0.7507491
C           2.5507562    -0.6105325    -1.2960249
H           2.8117578     0.0260875    -2.1622757
H           2.4603049    -1.6296146    -1.6843426
N           6.1418156    -0.3232924     1.0288442
H           6.7625953     0.0457418     0.2974692
H           6.7126375    -0.4137662     1.8765624
C           5.0093760     0.6724897     1.2525790
H           5.4688659     1.6350527     1.4889699
H           4.4410999     0.3056551     2.1095643
C           4.1406880     0.7254645     0.0064694
H           4.7153303     1.1641896    -0.8361328
H           3.2870092     1.3724491     0.2207348
N           3.6327809    -0.6076848    -0.3000893
C           4.7221066    -1.5147961    -0.6228660
H           5.3284825    -1.1834803    -1.4920059
H           4.3237269    -2.5035247    -0.8708867
C           5.6282422    -1.6861268     0.5930613
H           6.4990781    -2.3121420     0.3842109
H           5.0713273    -2.0887817     1.4413882
29
020_C10H16N3+_0-9-10-22 (-135,) energy =    -554.7133493
C           0.0542558    -0.8267824    -1.1856776
H           0.1360087    -1.6819372    -1.8504991
C          -1.1905122    -0.4113659    -0.7131901
H          -2.0939323    -0.9371154    -1.0081514
C          -1.2512263     0.6841783     0.1451438
H          -2.1967181     1.0428985     0.5387206
C          -0.0574226     1.3177372     0.4897933
H          -0.0609700     2.1771149     1.1570753
N           1.1406967     0.9341994     0.0322956
C           1.1970387    -0.1263341    -0.7888329
C           2.5610945    -0.5175864    -1.3376665
H           2.8432137     0.1775651    -2.1494843
H           2.4798780    -1.5090830    -1.7921805
N           6.1206321    -0.3780502     1.0554284
H           6.7488868     0.0321283     0.3529443
H           6.6826650    -0.5183869     1.9022315
C           4.9857951     0.6045903     1.3246138
H           5.4432387     1.5518237     1.6196667
H           4.4118953     0.1895920     2.1555783
C           4.1319663     0.7292371     0.0738188
H           4.7210929     1.2094196    -0.7359699
H           3.2769880     1.3726481     0.2986891
N           3.6233412    -0.5830927    -0.3154064
C           4.7171991    -1.4708589    -0.6774054
H           5.3326507    -1.0887988    -1.5188439
H           4.3224226    -2.4435032    -0.9871291
C           5.6100069    -1.7125759     0.5364164
H           6.4821050    -2.3274374     0.3014255
H           5.0438019    -2.1621791     1.3545356
29
020_C10H16N3+_0-9-10-22 (-120,) energy =    -554.7136253
C           0.1140665    -0.9161496    -1.0271972
H           0.2244323    -1.8621321    -1.5492479
C          -1.1294149    -0.5162105    -0.5367719
H          -2.0027517    -1.1472869    -0.6732666
C          -1.2278863     0.7033917     0.1285702
H          -2.1740308     1.0577569     0.5246241
C          -0.0715195     1.4708986     0.2734924
H          -0.1049863     2.4299055     0.7863161
N           1.1231024     1.1020007    -0.2036422
C           1.2160448    -0.0769432    -0.8423464
C           2.5795015    -0.4500797    -1.3980687
H           2.8802640     0.2888946    -2.1610919
H           2.5024276    -1.4175096    -1.9020950
N           6.0825415    -0.4342446     1.0828571
H           6.7208424     0.0252888     0.4210878
H           6.6282772    -0.6215637     1.9312188
C           4.9319535     0.5194648     1.3876262
H           5.3735760     1.4504815     1.7506926
H           4.3453081     0.0485211     2.1789222
C           4.1072719     0.7131176     0.1260308
H           4.7131715     1.2436098    -0.6387204
H           3.2454979     1.3468129     0.3552586
N           3.6198534    -0.5767840    -0.3542813
C           4.7301754    -1.4305392    -0.7464068
H           5.3594415    -0.9910368    -1.5485967
H           4.3517232    -2.3851628    -1.1250351
C           5.5986147    -1.7388627     0.4700928
H           6.4828211    -2.3289618     0.2174806
H           5.0197187    -2.2444024     1.2455608
29
020_C10H16N3+_0-9-10-22 (-105,) energy =    -554.7135211
C           0.1961511    -0.9723229    -0.8499053
H           0.3498239    -1.9826195    -1.2178096
C          -1.0409513    -0.5824367    -0.3366610
H          -1.8674143    -1.2860665    -0.2975462
C          -1.1959360     0.7247756     0.1196587
H          -2.1414606     1.0748802     0.5211144
C          -0.0996568     1.5851065     0.0458192
H          -0.1792619     2.6127980     0.3940032
N           1.0891874     1.2245184    -0.4532963
C           1.2326211    -0.0359344    -0.8982593
C           2.5944316    -0.3992123    -1.4580585
H           2.9119559     0.3719997    -2.1791286
H           2.5203028    -1.3468192    -1.9994706
N           6.0366118    -0.4749559     1.1043097
H           6.6774279     0.0440078     0.4906055
H           6.5680703    -0.7059902     1.9509556
C           4.8555485     0.4274766     1.4453647
H           5.2642886     1.3418299     1.8818434
H           4.2632466    -0.1109705     2.1878942
C           4.0572280     0.6855788     0.1778107
H           4.6702277     1.2754051    -0.5356849
H           3.1834119     1.2972960     0.4193456
N           3.6104973    -0.5804883    -0.3958204
C           4.7507080    -1.3789552    -0.8189603
H           5.3838581    -0.8711834    -1.5762021
H           4.4035969    -2.3143634    -1.2689765
C           5.6011340    -1.7469800     0.3935686
H           6.5063505    -2.2954272     0.1222326
H           5.0203011    -2.3189565     1.1198668
29
020_C10H16N3+_0-9-10-22 (-90,) energy =    -554.7129265
C           0.2898883    -1.0041466    -0.6467010
H           0.5078959    -2.0517017    -0.8338275
C          -0.9449002    -0.6136414    -0.1301490
H          -1.7079422    -1.3534953     0.0937474
C          -1.1825852     0.7428278     0.0864790
H          -2.1315252     1.0938969     0.4791207
C          -0.1661940     1.6496506    -0.2160351
H          -0.3102532     2.7159604    -0.0550531
N           1.0221706     1.2871495    -0.7173064
C           1.2391734    -0.0201590    -0.9398463
C           2.6016131    -0.3801469    -1.4964296
H           2.9316836     0.4166987    -2.1815132
H           2.5312930    -1.3103610    -2.0688779
N           5.9936531    -0.5149389     1.1252868
H           6.6190584     0.0761946     0.5630058
H           6.5234084    -0.7855996     1.9612106
C           4.7693463     0.3058262     1.5133556
H           5.1296441     1.2009629     2.0257077
H           4.1909199    -0.3135463     2.2017617
C           3.9784882     0.6260522     0.2541886
H           4.5732233     1.2964658    -0.4003843
H           3.0812062     1.1850589     0.5314657
N           3.5953688    -0.6095823    -0.4218422
C           4.7767481    -1.3246828    -0.8816406
H           5.3972773    -0.7338842    -1.5870987
H           4.4762958    -2.2359472    -1.4083232
C           5.6247083    -1.7476200     0.3141606
H           6.5568911    -2.2347463     0.0183728
H           5.0597021    -2.3970096     0.9858208
29
020_C10H16N3+_0-9-10-22 (-75,) energy =    -554.7121200
C           0.3988783    -0.9409712    -0.4243097
H           0.6954153    -1.9858870    -0.4104038
C          -0.8397344    -0.5405586     0.0735573
H          -1.5315057    -1.2709648     0.4832157
C          -1.1759748     0.8123548     0.0273822
H          -2.1325020     1.1692541     0.3957630
C          -0.2485176     1.7073672    -0.5066028
H          -0.4690153     2.7717523    -0.5523873
N           0.9455172     1.3351559    -0.9882560
C           1.2531010     0.0286268    -0.9608809
C           2.6136434    -0.3423640    -1.5152715
H           2.9586690     0.4746489    -2.1676914
H           2.5345702    -1.2515714    -2.1213111
N           5.9755353    -0.5721866     1.1321945
H           6.5797411     0.0848679     0.6222051
H           6.5121126    -0.8865984     1.9482632
C           4.7186190     0.1655055     1.5750896
H           5.0395539     1.0298629     2.1610789
H           4.1619338    -0.5298454     2.2065647
C           3.9191725     0.5564319     0.3404745
H           4.4827200     1.3085411    -0.2489373
H           2.9989555     1.0466788     0.6679659
N           3.5901458    -0.6312670    -0.4407072
C           4.8016840    -1.2652332    -0.9407679
H           5.4041307    -0.5981217    -1.5916203
H           4.5374307    -2.1409309    -1.5419990
C           5.6574751    -1.7507270     0.2246586
H           6.6087001    -2.1780469    -0.1012064
H           5.1144230    -2.4714722     0.8392725
29
020_C10H16N3+_0-9-10-22 (-60,) energy =    -554.7114892
C           0.6329151     0.0683509     0.8047512
H           1.1775094     0.2041648     1.7345942
C          -0.5558490     0.7532038     0.5601631
H          -0.9602261     1.4385783     1.2996258
C          -1.2199841     0.5348061    -0.6470866
H          -2.1519394     1.0410873    -0.8776817
C          -0.6561163    -0.3553759    -1.5613871
H          -1.1391719    -0.5478275    -2.5169869
N           0.4888788    -1.0159455    -1.3408294
C           1.1107587    -0.8160469    -0.1694898
C           2.3869763    -1.6074125     0.0420287
H           2.5175119    -2.2800486    -0.8196175
H           2.2968360    -2.2274604     0.9419976
N           6.1697365     0.3975046    -0.0651045
H           6.5872223    -0.1755670    -0.8095932
H           6.8802543     1.0875370     0.2029536
C           4.9354987     1.0954154    -0.6203847
H           5.2505963     1.6624700    -1.4993884
H           4.5914844     1.7761952     0.1608821
C           3.8814895     0.0461423    -0.9454244
H           4.2286691    -0.5865034    -1.7877813
H           2.9837559     0.5654160    -1.2914707
N           3.5625247    -0.7339310     0.2453603
C           4.7314796    -1.4702146     0.7054930
H           5.1228401    -2.1796604    -0.0526237
H           4.4679021    -2.0625845     1.5874281
C           5.8350048    -0.5010306     1.1157746
H           6.7553268    -1.0112810     1.4093948
H           5.5017881     0.1604352     1.9180277
29
020_C10H16N3+_0-9-10-22 (-45,) energy =    -554.7108509
C           0.7551897     0.2236362     0.6527518
H           1.4170187     0.4952568     1.4695650
C          -0.4626141     0.8752655     0.4621869
H          -0.7699292     1.6756980     1.1293757
C          -1.2812331     0.4748266    -0.5932953
H          -2.2392854     0.9507296    -0.7766400
C          -0.8374293    -0.5595595    -1.4183592
H          -1.4435015    -0.8988333    -2.2557024
N           0.3342184    -1.1868811    -1.2525410
C           1.1076823    -0.8074436    -0.2255231
C           2.3962986    -1.5932852    -0.0621946
H           2.5345859    -2.2093546    -0.9642384
H           2.2998178    -2.2789567     0.7892350
N           6.1833576     0.4004851     0.0193253
H           6.6151395    -0.1365088    -0.7436948
H           6.8904256     1.0727473     0.3371864
C           4.9643511     1.1315675    -0.5261401
H           5.2999561     1.7404388    -1.3688032
H           4.6071231     1.7745154     0.2808419
C           3.9121239     0.1061639    -0.9259111
H           4.2727735    -0.4823608    -1.7942052
H           3.0232626     0.6500186    -1.2576207
N           3.5652151    -0.7354174     0.2140311
C           4.7222411    -1.4971419     0.6629890
H           5.1285748    -2.1688499    -0.1210625
H           4.4373806    -2.1322876     1.5076502
C           5.8190421    -0.5544772     1.1459971
H           6.7306363    -1.0831064     1.4341882
H           5.4701554     0.0674396     1.9728746
29
020_C10H16N3+_0-9-10-22 (-30,) energy =    -554.7099829
C           0.8417245     0.3392075     0.4756220
H           1.5878805     0.7187793     1.1666320
C          -0.4031222     0.9560806     0.3434038
H          -0.6424383     1.8430910     0.9233374
C          -1.3342488     0.4101519    -0.5375488
H          -2.3149839     0.8555444    -0.6702913
C          -0.9734011    -0.7322739    -1.2551575
H          -1.6697913    -1.1885417    -1.9555762
N           0.2205164    -1.3261543    -1.1471354
C           1.1051116    -0.8033108    -0.2861846
C           2.4136878    -1.5699803    -0.1905212
H           2.5635481    -2.1120522    -1.1374627
H           2.3203029    -2.3300163     0.5959035
N           6.1964091     0.4086387     0.1033688
H           6.6551574    -0.1021158    -0.6619294
H           6.8924061     1.0671637     0.4706834
C           4.9994274     1.1623665    -0.4590226
H           5.3656088     1.7990788    -1.2676772
H           4.6161340     1.7787353     0.3567355
C           3.9594185     0.1554138    -0.9315598
H           4.3490214    -0.4021281    -1.8077652
H           3.0834997     0.7142460    -1.2730693
N           3.5704367    -0.7281099     0.1625586
C           4.7103834    -1.5072206     0.6256886
H           5.1447556    -2.1510166    -0.1666196
H           4.3951595    -2.1712669     1.4364764
C           5.7893346    -0.5844884     1.1814985
H           6.6888972    -1.1252996     1.4844469
H           5.4107966     0.0088193     2.0163465
29
020_C10H16N3+_0-9-10-22 (-15,) energy =    -554.7086672
C           0.8900934     0.4384974     0.3345240
H           1.6977515     0.8973612     0.8956859
C          -0.3723224     1.0325983     0.2694573
H          -0.5582773     1.9840308     0.7599960
C          -1.3870430     0.3826531    -0.4275849
H          -2.3828309     0.8073761    -0.5032404
C          -1.0911828    -0.8407460    -1.0345716
H          -1.8550807    -1.3822181    -1.5887736
N           0.1153653    -1.4139061    -0.9899354
C           1.0836375    -0.7875767    -0.3058148
C           2.4065125    -1.5381202    -0.3029200
H           2.5561989    -1.9845051    -1.2989712
H           2.3200979    -2.3776557     0.3978941
N           6.2023526     0.3705865     0.2076704
H           6.6870999    -0.1251422    -0.5514672
H           6.8905061     1.0083796     0.6232365
C           5.0413493     1.1573595    -0.3833736
H           5.4501476     1.8099719    -1.1582497
H           4.6332444     1.7578302     0.4322472
C           4.0084500     0.1789504    -0.9269431
H           4.4280415    -0.3595735    -1.8012313
H           3.1556108     0.7595131    -1.2901014
N           3.5613122    -0.7303652     0.1231591
C           4.6703719    -1.5383925     0.6112312
H           5.1308649    -2.1653241    -0.1798032
H           4.3129625    -2.2199197     1.3891034
C           5.7357441    -0.6462842     1.2387575
H           6.6142946    -1.2077062     1.5649511
H           5.3285265    -0.0710547     2.0727718
29
020_C10H16N3+_0-9-10-22 (0,) energy =    -554.7070086
C           0.9077557     0.5162522     0.1755809
H           1.7523443     1.0519319     0.5964118
C          -0.3734208     1.0736841     0.1875185
H          -0.5347406     2.0702345     0.5890843
C          -1.4362136     0.3308826    -0.3176136
H          -2.4475800     0.7241719    -0.3283086
C          -1.1683853    -0.9476403    -0.8146623
H          -1.9705752    -1.5637330    -1.2157371
N           0.0529204    -1.4883753    -0.8391990
C           1.0701528    -0.7695710    -0.3423932
C           2.4091841    -1.4851806    -0.4485126
H           2.5540270    -1.8138391    -1.4903708
H           2.3403937    -2.4028153     0.1462843
N           6.2095394     0.3447311     0.2938291
H           6.7293583    -0.1460539    -0.4450581
H           6.8821981     0.9650433     0.7583414
C           5.0957735     1.1592831    -0.3479028
H           5.5571116     1.8168615    -1.0883362
H           4.6524008     1.7538111     0.4535631
C           4.0795849     0.2054278    -0.9634328
H           4.5398328    -0.3254206    -1.8219679
H           3.2579093     0.8051701    -1.3651883
N           3.5621041    -0.7131446     0.0449023
C           4.6299506    -1.5471032     0.5785087
H           5.1255204    -2.1677286    -0.1961635
H           4.2205225    -2.2350254     1.3241627
C           5.6710590    -0.6816476     1.2797985
H           6.5219274    -1.2614393     1.6449469
H           5.2253975    -0.1140107     2.0992235
29
020_C10H16N3+_0-9-10-22 (15,) energy =    -554.7086676
C           0.9050880     0.4101423     0.3193051
H           1.7222958     1.0546970     0.6267860
C          -0.3781682     0.5696825     0.8471791
H          -0.5722625     1.3284675     1.6001654
C          -1.4024071    -0.2538827     0.3881315
H          -2.4144621    -0.1647348     0.7695865
C          -1.0946579    -1.2082060    -0.5850416
H          -1.8653467    -1.8712664    -0.9726577
N           0.1311841    -1.3789203    -1.0895391
C           1.1094843    -0.5739037    -0.6505586
C           2.4551259    -0.8413125    -1.3072124
H           2.4280279    -0.4217782    -2.3203833
H           2.5734196    -1.9299412    -1.4295216
N           6.2050358     0.0877735     0.5326681
H           6.6699390    -0.8015171     0.3088943
H           6.8904557     0.6515607     1.0478164
C           5.8209452     0.7808976    -0.7660940
H           6.7319976     0.8932379    -1.3583853
H           5.4333519     1.7624995    -0.4859021
C           4.7582897    -0.0495434    -1.4773194
H           5.2026551    -1.0078648    -1.8165986
H           4.4603273     0.4983866    -2.3763682
N           3.6015029    -0.2334500    -0.6120413
C           3.9681662    -0.9759253     0.5893994
H           4.3635399    -1.9860522     0.3574401
H           3.0803773    -1.1171216     1.2124087
C           4.9925954    -0.1996128     1.4065393
H           5.3435582    -0.7569186     2.2781572
H           4.6033343     0.7719940     1.7176335
29
020_C10H16N3+_0-9-10-22 (30,) energy =    -554.7099829
C           0.8697319     0.5423759     0.1791552
H           1.6366658     1.2870188     0.3679458
C          -0.3988592     0.6479263     0.7511594
H          -0.6370524     1.4759665     1.4129679
C          -1.3544516    -0.3208871     0.4521829
H          -2.3540311    -0.2771706     0.8726213
C          -0.9934858    -1.3613342    -0.4065867
H          -1.7086277    -2.1399784    -0.6635144
N           0.2223372    -1.4811848    -0.9517495
C           1.1311542    -0.5365839    -0.6708731
C           2.4662473    -0.7244289    -1.3719671
H           2.4354183    -0.1995901    -2.3355189
H           2.5864580    -1.7953409    -1.5993289
N           6.1948580     0.0087810     0.5953272
H           6.6315633    -0.8909696     0.3571304
H           6.8869086     0.5306484     1.1446060
C           5.8722257     0.7536393    -0.6913263
H           6.8020283     0.8467822    -1.2572416
H           5.5163957     1.7414720    -0.3915810
C           4.7969781    -0.0129522    -1.4533408
H           5.2122174    -0.9774664    -1.8113829
H           4.5426943     0.5723591    -2.3424139
N           3.6118976    -0.1783246    -0.6231614
C           3.9190743    -0.9705933     0.5629904
H           4.2827160    -1.9875769     0.3102401
H           3.0104122    -1.0958401     1.1586476
C           4.9487940    -0.2567177     1.4283925
H           5.2549219    -0.8501365     2.2930036
H           4.5866075     0.7200272     1.7556180
29
020_C10H16N3+_0-9-10-22 (45,) energy =    -554.7108508
C           0.7972294     0.6530953     0.0145447
H           1.4854705     1.4915005     0.0635535
C          -0.4513944     0.7051273     0.6327729
H          -0.7570216     1.5904039     1.1833514
C          -1.3020948    -0.3944133     0.5235903
H          -2.2845361    -0.3962527     0.9848657
C          -0.8584482    -1.5043491    -0.1967161
H          -1.4891835    -2.3845164    -0.3018241
N           0.3420486    -1.5713994    -0.7867108
C           1.1469815    -0.5037146    -0.6912712
C           2.4700786    -0.6244205    -1.4257906
H           2.4384868    -0.0132289    -2.3367453
H           2.5895471    -1.6730898    -1.7394092
N           6.1801525    -0.0771768     0.6381652
H           6.5958577    -0.9795291     0.3736990
H           6.8756605     0.4032741     1.2198456
C           5.9040832     0.7245744    -0.6247927
H           6.8470328     0.8115423    -1.1695768
H           5.5709782     1.7104451    -0.2941416
C           4.8218567     0.0188968    -1.4345289
H           5.2160295    -0.9429699    -1.8224236
H           4.6002706     0.6444193    -2.3049495
N           3.6177418    -0.1435504    -0.6318560
C           3.8800805    -0.9913525     0.5259833
H           4.2218116    -2.0071014     0.2399230
H           2.9572697    -1.1161369     1.0993259
C           4.9108659    -0.3389236     1.4371629
H           5.1842211    -0.9721310     2.2843729
H           4.5677587     0.6345317     1.7933576
29
020_C10H16N3+_0-9-10-22 (60,) energy =    -554.7114895
C           0.6846500     0.7824341    -0.1859031
H           1.2694935     1.6893122    -0.3090638
C          -0.5354462     0.7987046     0.4872388
H          -0.9245751     1.7240225     0.9024919
C          -1.2504750    -0.3929606     0.6090711
H          -2.2079308    -0.4262657     1.1191657
C          -0.7043544    -1.5523328     0.0576969
H          -1.2270669    -2.5031106     0.1374152
N           0.4700972    -1.5825643    -0.5870447
C           1.1417849    -0.4290830    -0.7177614
C           2.4508814    -0.5118844    -1.4787727
H           2.4239957     0.1638173    -2.3420447
H           2.5602690    -1.5396386    -1.8578249
N           6.1590967    -0.1534947     0.6335163
H           6.5575014    -1.0508599     0.3286045
H           6.8597407     0.2829911     1.2429539
C           5.9112249     0.7142206    -0.5910637
H           6.8604462     0.8060664    -1.1240774
H           5.5972913     1.6901518    -0.2153236
C           4.8198022     0.0731787    -1.4415423
H           5.1954258    -0.8773808    -1.8734648
H           4.6186800     0.7452966    -2.2817710
N           3.6071213    -0.1000351    -0.6543355
C           3.8426388    -1.0126042     0.4592167
H           4.1681224    -2.0183262     0.1231619
H           2.9131652    -1.1531999     1.0174305
C           4.8776994    -0.4267786     1.4094992
H           5.1312502    -1.1056799     2.2269859
H           4.5511104     0.5353340     1.8093304
29
020_C10H16N3+_0-9-10-22 (75,) energy =    -554.7121199
C           0.5593598     0.8916821    -0.4027002
H           1.0353887     1.8186874    -0.7093625
C          -0.6424538     0.9019114     0.3029182
H          -1.1247241     1.8415373     0.5566487
C          -1.2164769    -0.3157047     0.6682528
H          -2.1554440    -0.3567578     1.2110955
C          -0.5526639    -1.4921050     0.3191759
H          -0.9627622    -2.4618178     0.5932418
N           0.6031733    -1.5154339    -0.3588315
C           1.1382749    -0.3402978    -0.7263983
C           2.4450581    -0.4184780    -1.4894063
H           2.4393282     0.3022088    -2.3144954
H           2.5384705    -1.4283535    -1.9179347
N           6.1504122    -0.2380815     0.6558262
H           6.5454578    -1.1157304     0.2945177
H           6.8497369     0.1530724     1.2966695
C           5.9153350     0.7100761    -0.5101229
H           6.8680655     0.8292989    -1.0313804
H           5.6066304     1.6615224    -0.0724184
C           4.8230258     0.1360316    -1.4065798
H           5.1934763    -0.7866725    -1.8994908
H           4.6321335     0.8650635    -2.2004482
N           3.6062813    -0.0785891    -0.6363115
C           3.8315977    -1.0700016     0.4103587
H           4.1584014    -2.0489147     0.0034393
H           2.8981058    -1.2547603     0.9477974
C           4.8625796    -0.5556909     1.4047213
H           5.1084165    -1.2899530     2.1753859
H           4.5387144     0.3789639     1.8670001
29
020_C10H16N3+_0-9-10-22 (90,) energy =    -554.7129265
C           0.4275999     0.8901681    -0.6154410
H           0.7912377     1.7883758    -1.1062661
C          -0.7650925     0.9043966     0.1065683
H          -1.3485275     1.8168288     0.1890907
C          -1.1961700    -0.2744245     0.7132249
H          -2.1220908    -0.3128606     1.2781127
C          -0.4059463    -1.4163212     0.5771395
H          -0.7041360    -2.3542735     1.0408454
N           0.7390374    -1.4436602    -0.1179466
C           1.1406455    -0.3085735    -0.7146206
C           2.4464538    -0.3880920    -1.4789183
H           2.4517126     0.3603751    -2.2774972
H           2.5300918    -1.3828310    -1.9444602
N           6.1632334    -0.2889816     0.6595963
H           6.5876409    -1.1187136     0.2258298
H           6.8498366     0.0708370     1.3317373
C           5.8940044     0.7455917    -0.4224013
H           6.8412191     0.9399974    -0.9310599
H           5.5546506     1.6458144     0.0938427
C           4.8178794     0.2155408    -1.3651912
H           5.2162427    -0.6493128    -1.9353699
H           4.6027490     1.0045393    -2.0926979
N           3.6133489    -0.1015580    -0.6121792
C           3.8757765    -1.1761813     0.3401386
H           4.2429681    -2.0980461    -0.1568173
H           2.9475335    -1.4503485     0.8477538
C           4.8881819    -0.7154763     1.3775961
H           5.1622697    -1.5052024     2.0810125
H           4.5331661     0.1633609     1.9195483
29
020_C10H16N3+_0-9-10-22 (105,) energy =    -554.7135211
C           0.3042600     0.8555450    -0.7986999
H           0.5780990     1.6829895    -1.4467772
C          -0.8919637     0.8794932    -0.0815519
H          -1.5653289     1.7279384    -0.1615396
C          -1.2067000    -0.2053679     0.7339476
H          -2.1289083    -0.2337317     1.3053249
C          -0.3040250    -1.2676605     0.7989073
H          -0.5117311    -2.1323198     1.4257679
N           0.8421265    -1.3053542     0.1079780
C           1.1391501    -0.2593125    -0.6825286
C           2.4450013    -0.3465076    -1.4487053
H           2.4604698     0.4256242    -2.2233965
H           2.5096009    -1.3249161    -1.9527634
N           6.1885346    -0.3497998     0.6503764
H           6.6284105    -1.1311541     0.1477889
H           6.8725868    -0.0284368     1.3442295
C           5.8849281     0.7616091    -0.3423085
H           6.8224832     1.0189456    -0.8409092
H           5.5295608     1.6089688     0.2473791
C           4.8117488     0.2852325    -1.3171161
H           5.2246916    -0.5205258    -1.9592588
H           4.5731868     1.1267085    -1.9751405
N           3.6238127    -0.1196427    -0.5811934
C           3.9190363    -1.2628069     0.2776434
H           4.3044807    -2.1304535    -0.2979919
H           2.9963726    -1.5941575     0.7623956
C           4.9301628    -0.8651512     1.3407117
H           5.2304307    -1.7032370     1.9740202
H           4.5601513    -0.0428783     1.9563837
29
020_C10H16N3+_0-9-10-22 (120,) energy =    -554.7136255
C           0.1905064     0.7832708    -0.9584909
H           0.3909049     1.5192215    -1.7316955
C          -1.0175957     0.7969219    -0.2606497
H          -1.7734260     1.5441613    -0.4841675
C          -1.2341790    -0.1634193     0.7245383
H          -2.1592435    -0.1940971     1.2910546
C          -0.2268212    -1.0979665     0.9678502
H          -0.3565540    -1.8645857     1.7289283
N           0.9302198    -1.1270800     0.2961612
C           1.1378372    -0.1971667    -0.6517670
C           2.4478743    -0.2781846    -1.4161596
H           2.4722480     0.5231128    -2.1599990
H           2.4932525    -1.2331089    -1.9682298
N           6.2217191    -0.4126178     0.6253269
H           6.6602388    -1.1513415     0.0609578
H           6.9130011    -0.1367618     1.3314923
C           5.8951146     0.7652859    -0.2788762
H           6.8233524     1.0677929    -0.7694910
H           5.5398950     1.5635824     0.3757918
C           4.8129455     0.3511013    -1.2720858
H           5.2249124    -0.4026568    -1.9754686
H           4.5609158     1.2360649    -1.8647076
N           3.6380231    -0.1159049    -0.5529254
C           3.9510874    -1.3145716     0.2199181
H           4.3302501    -2.1390919    -0.4202785