28
429_C12H12N2O2_0-9-10-11 (-165,) energy =    -724.4505955
C           2.5189857    -1.5720861    -0.4549954
C           1.3394301    -1.2276318     0.2119620
H           1.3223020    -0.3040176     0.7818324
C           0.2068876    -2.0386307     0.1442669
H          -0.6967430    -1.7590960     0.6770543
C           0.2468012    -3.2019661    -0.6214544
H          -0.6280071    -3.8430452    -0.6889129
C           1.4034669    -3.5546639    -1.3197944
H           1.4117955    -4.4545102    -1.9239774
C           2.5410486    -2.7439917    -1.2417855
O           3.7032456    -2.9983894    -1.9108231
C           3.6898845    -3.9622642    -2.9563585
H           4.6681835    -3.8937932    -3.4348024
H           2.9047521    -3.7403002    -3.6893064
H           3.5493515    -4.9795246    -2.5687001
C           5.7657799     1.1286204    -0.3739446
H           6.5896359     1.8327449    -0.3790361
C           6.0407018    -0.2087664     0.0913802
N           4.8873378    -1.0575461     0.0895983
C           5.1002985    -2.3892372     0.6668272
H           5.7876886    -2.2820302     1.5058743
H           5.5502675    -3.0564690    -0.0713885
H           4.1471225    -2.7975990     0.9991390
C           3.6771368    -0.6321561    -0.3976118
N           3.4548177     0.5957250    -0.8041442
C           4.5081238     1.4656242    -0.7719462
H           4.2812202     2.4757503    -1.1074719
O           7.1179314    -0.6415941     0.4862403
28
429_C12H12N2O2_0-9-10-11 (-150,) energy =    -724.4494872
C           2.4762747    -1.5950112    -0.3995957
C           1.2828807    -1.2327720     0.2349718
H           1.2507377    -0.2889741     0.7701069
C           0.1551200    -2.0498080     0.1730755
H          -0.7595714    -1.7543852     0.6778084
C           0.2112820    -3.2393003    -0.5522512
H          -0.6610583    -3.8841798    -0.6148172
C           1.3827856    -3.6109820    -1.2130805
H           1.4122218    -4.5310936    -1.7864315
C           2.5172288    -2.7959380    -1.1372978
O           3.6916270    -3.0853759    -1.7753014
C           3.6328380    -3.8425704    -2.9805646
H           4.6133765    -3.7353406    -3.4480207
H           2.8575449    -3.4541039    -3.6512430
H           3.4464652    -4.9063370    -2.7850757
C           5.7086028     1.1221357    -0.3546248
H           6.5288419     1.8303835    -0.3681365
C           5.9764745    -0.1913488     0.1785734
N           4.8271039    -1.0468859     0.1813067
C           5.0217558    -2.3556597     0.8168393
H           5.7610136    -2.2296568     1.6069593
H           5.3970364    -3.0798570     0.0907018
H           4.0743801    -2.7058646     1.2255047
C           3.6297142    -0.6484788    -0.3565594
N           3.4129578     0.5582018    -0.8248419
C           4.4619601     1.4339137    -0.8039467
H           4.2411873     2.4262803    -1.1923844
O           7.0454260    -0.5963814     0.6219164
28
429_C12H12N2O2_0-9-10-11 (-135,) energy =    -724.4480497
C           2.4464553    -1.6310564    -0.3884511
C           1.2452012    -1.2463903     0.2203606
H           1.2051650    -0.2834871     0.7197157
C           0.1200038    -2.0669759     0.1749140
H          -0.8011255    -1.7546516     0.6574867
C           0.1849104    -3.2846881    -0.5032815
H          -0.6863954    -3.9323160    -0.5493051
C           1.3651495    -3.6784933    -1.1332589
H           1.4102229    -4.6220773    -1.6672180
C           2.4966769    -2.8587181    -1.0766111
O           3.6797673    -3.1940155    -1.6840048
C           3.6119013    -3.7112692    -3.0123928
H           4.6319904    -3.6760748    -3.3999315
H           2.9562458    -3.0956166    -3.6389144
H           3.2620432    -4.7510226    -3.0306654
C           5.6773313     1.0865531    -0.4131360
H           6.4980042     1.7937316    -0.4443750
C           5.9402222    -0.2059928     0.1716619
N           4.7906340    -1.0611430     0.1948398
C           4.9787364    -2.3468014     0.8784589
H           5.7189278    -2.1949097     1.6630571
H           5.3486955    -3.0994947     0.1791407
H           4.0298890    -2.6766682     1.3004880
C           3.5993121    -0.6828876    -0.3692817
N           3.3866886     0.5049280    -0.8855104
C           4.4356515     1.3809882    -0.8871367
H           4.2191414     2.3578838    -1.3151519
O           7.0049878    -0.5933091     0.6399003
28
429_C12H12N2O2_0-9-10-11 (-120,) energy =    -724.4472292
C           2.4579102    -1.6708899    -0.3924174
C           1.2531448    -1.2658482     0.1989520
H           1.2105155    -0.2888870     0.6700151
C           0.1301353    -2.0892393     0.1747178
H          -0.7928668    -1.7625730     0.6442851
C           0.1980925    -3.3319237    -0.4588852
H          -0.6712158    -3.9834423    -0.4801330
C           1.3815709    -3.7437785    -1.0689978
H           1.4414669    -4.7092709    -1.5619227
C           2.5084060    -2.9167402    -1.0422346
O           3.6948201    -3.3021393    -1.6233413
C           3.6580075    -3.5438163    -3.0312759
H           4.6816945    -3.7876520    -3.3219118
H           3.3241609    -2.6494582    -3.5712799
H           3.0025593    -4.3855677    -3.2855942
C           5.6969888     1.0356054    -0.4800227
H           6.5199725     1.7392425    -0.5266108
C           5.9505382    -0.2368544     0.1514629
N           4.7983344    -1.0881113     0.1921630
C           4.9767483    -2.3524420     0.9173765
H           5.7111485    -2.1782560     1.7027535
H           5.3490284    -3.1275823     0.2443297
H           4.0236432    -2.6662269     1.3419210
C           3.6141079    -0.7257768    -0.3958987
N           3.4100339     0.4433434    -0.9565683
C           4.4616198     1.3162912    -0.9780212
H           4.2525765     2.2779338    -1.4426793
O           7.0096359    -0.6104769     0.6426764
28
429_C12H12N2O2_0-9-10-11 (-105,) energy =    -724.4471103
C           2.4182379    -1.7201184    -0.4088528
C           1.2136434    -1.2974774     0.1707905
H           1.1684147    -0.3072748     0.6132705
C           0.0934101    -2.1254697     0.1745094
H          -0.8289953    -1.7862576     0.6365047
C           0.1616476    -3.3885806    -0.4181156
H          -0.7068986    -4.0413794    -0.4152387
C           1.3452790    -3.8158719    -1.0177019
H           1.4168049    -4.7943720    -1.4834426
C           2.4681844    -2.9848523    -1.0184269
O           3.6469140    -3.4082981    -1.5950385
C           3.6655308    -3.3706185    -3.0250738
H           4.6508079    -3.7313948    -3.3270327
H           3.5188226    -2.3468417    -3.3911851
H           2.8920968    -4.0208389    -3.4528898
C           5.6691877     0.9687890    -0.5731033
H           6.4949346     1.6677117    -0.6383267
C           5.9111245    -0.2788874     0.1108248
N           4.7549218    -1.1240661     0.1724356
C           4.9197528    -2.3643726     0.9417700
H           5.6708007    -2.1753369     1.7074936
H           5.2637026    -3.1713559     0.2912991
H           3.9678620    -2.6421274     1.3935921
C           3.5783884    -0.7798158    -0.4409221
N           3.3855678     0.3652774    -1.0528501
C           4.4413636     1.2328843    -1.0976823
H           4.2418948     2.1751668    -1.6042406
O           6.9641826    -0.6361169     0.6260731
28
429_C12H12N2O2_0-9-10-11 (-90,) energy =    -724.4471631
C           2.3884681    -1.7575564    -0.4345803
C           1.1863252    -1.3208398     0.1385948
H           1.1410543    -0.3188245     0.5538094
C           0.0694545    -2.1534923     0.1768760
H          -0.8504351    -1.8035017     0.6359025
C           0.1381452    -3.4344251    -0.3751355
H          -0.7279470    -4.0898177    -0.3458582
C           1.3183616    -3.8735658    -0.9741917
H           1.3931062    -4.8619190    -1.4177403
C           2.4370543    -3.0393824    -1.0089845
O           3.6026954    -3.4925062    -1.5918814
C           3.7237745    -3.1882502    -2.9860456
H           4.6896169    -3.5866634    -3.3032213
H           3.6953963    -2.1054525    -3.1590550
H           2.9216038    -3.6660915    -3.5630105
C           5.6530481     0.9113644    -0.6401023
H           6.4835974     1.6036808    -0.7138529
C           5.8818584    -0.3189019     0.0793898
N           4.7202352    -1.1566938     0.1503739
C           4.8693217    -2.3790351     0.9518995
H           5.6273035    -2.1810994     1.7083176
H           5.1961063    -3.2083290     0.3209024
H           3.9154346    -2.6291480     1.4155625
C           3.5520756    -0.8220576    -0.4841978
N           3.3722721     0.3061891    -1.1308122
C           4.4332314     1.1672798    -1.1867912
H           4.2447855     2.0960346    -1.7216741
O           6.9277285    -0.6669541     0.6146565
28
429_C12H12N2O2_0-9-10-11 (-75,) energy =    -724.4468751
C           2.3535630    -1.7791221    -0.4712501
C           1.1504347    -1.3285765     0.0899650
H           1.1058928    -0.3136712     0.4725880
C           0.0367568    -2.1627334     0.1657785
H          -0.8817736    -1.7993657     0.6169786
C           0.1095992    -3.4631371    -0.3370360
H          -0.7526551    -4.1217505    -0.2798882
C           1.2869099    -3.9154144    -0.9316860
H           1.3627253    -4.9144582    -1.3497348
C           2.4029801    -3.0801602    -1.0058836
O           3.5480745    -3.5712214    -1.5966504
C           3.8291491    -3.0577705    -2.9044248
H           4.7873974    -3.4892989    -3.2002077
H           3.9014123    -1.9645297    -2.9057769
H           3.0517237    -3.3662326    -3.6151910
C           5.6175675     0.8933388    -0.6474353
H           6.4482473     1.5863186    -0.7127326
C           5.8428440    -0.3405144     0.0669472
N           4.6809950    -1.1805618     0.1269054
C           4.8197038    -2.4005078     0.9356274
H           5.5985307    -2.2118564     1.6727477
H           5.1121003    -3.2432763     0.3058977
H           3.8706736    -2.6238955     1.4227864
C           3.5157802    -0.8422761    -0.5127999
N           3.3395654     0.2908788    -1.1525001
C           4.3997831     1.1533048    -1.1967227
H           4.2130759     2.0860515    -1.7251934
O           6.8857388    -0.6888165     0.6073749
28
429_C12H12N2O2_0-9-10-11 (-60,) energy =    -724.4458596
C           2.3377628    -1.7902398    -0.5049503
C           1.1418790    -1.3230812     0.0624627
H           1.1084855    -0.2974007     0.4160994
C           0.0284298    -2.1495356     0.1863466
H          -0.8808817    -1.7692220     0.6420369
C           0.0931289    -3.4661602    -0.2743550
H          -0.7677105    -4.1225773    -0.1816864
C           1.2565742    -3.9353749    -0.8799670
H           1.3224157    -4.9431323    -1.2778016
C           2.3751712    -3.1069515    -1.0062038
O           3.4787574    -3.6516855    -1.6231164
C           3.9524055    -3.0031039    -2.8087975
H           4.7545474    -3.6370882    -3.1916553
H           4.3484579    -2.0024236    -2.6118656
H           3.1516850    -2.9328867    -3.5550982
C           5.5977089     0.8873446    -0.6843779
H           6.4275548     1.5810191    -0.7525716
C           5.8330854    -0.3572947     0.0075964
N           4.6720575    -1.1989332     0.0707766
C           4.8206473    -2.4240224     0.8710338
H           5.6096364    -2.2391519     1.5982597
H           5.1043474    -3.2661445     0.2363293
H           3.8779231    -2.6486734     1.3695093
C           3.4959793    -0.8503663    -0.5466002
N           3.3102312     0.2958666    -1.1592913
C           4.3692626     1.1589614    -1.2041316
H           4.1733673     2.1025150    -1.7096106
O           6.8832528    -0.7136141     0.5282857
28
429_C12H12N2O2_0-9-10-11 (-45,) energy =    -724.4452052
C           2.2609222    -1.8304118    -0.5506670
C           1.0754339    -1.3706038     0.0481499
H           1.0453492    -0.3436553     0.3987253
C          -0.0276588    -2.2020878     0.2090521
H          -0.9265964    -1.8258547     0.6878736
C           0.0354891    -3.5212180    -0.2477223
H          -0.8167498    -4.1846855    -0.1290802
C           1.1823050    -3.9829709    -0.8850622
H           1.2422401    -4.9905559    -1.2839703
C           2.2925881    -3.1466767    -1.0534440
O           3.3599010    -3.7093646    -1.7062921
C           4.0351176    -2.9539496    -2.7190231
H           4.4290540    -3.6863432    -3.4278679
H           4.8686115    -2.3770332    -2.3059780
H           3.3428447    -2.2797633    -3.2337238
C           5.4756925     0.9027426    -0.7008121
H           6.2919239     1.6138804    -0.7508971
C           5.7144927    -0.3240881     0.0213330
N           4.5711182    -1.1935870     0.0496797
C           4.7088330    -2.4198472     0.8514232
H           5.5953264    -2.2926371     1.4700310
H           4.8347709    -3.2916795     0.2052004
H           3.8208534    -2.5549484     1.4708089
C           3.4065003    -0.8746820    -0.6055523
N           3.2176287     0.2560966    -1.2434242
C           4.2618937     1.1382235    -1.2699597
H           4.0660604     2.0677928    -1.8007084
O           6.7542040    -0.6435414     0.5850683
28
429_C12H12N2O2_0-9-10-11 (-30,) energy =    -724.4443695
C           2.2352489    -1.8451126    -0.6025791
C           1.0728882    -1.3842761     0.0431042
H           1.0607892    -0.3564745     0.3924302
C          -0.0242620    -2.2105030     0.2529136
H          -0.9029473    -1.8304234     0.7649098
C           0.0218227    -3.5330337    -0.1981571
H          -0.8242068    -4.1965751    -0.0415048
C           1.1398331    -3.9974467    -0.8792343
H           1.1806735    -5.0054164    -1.2796003
C           2.2460370    -3.1641677    -1.1011247
O           3.2492715    -3.7430996    -1.8301321
C           4.0795188    -2.9551301    -2.6867255
H           4.4148210    -3.6313382    -3.4766680
H           4.9555897    -2.5660340    -2.1590912
H           3.5177281    -2.1259584    -3.1288789
C           5.4474164     0.8936254    -0.7227005
H           6.2623015     1.6070896    -0.7591887
C           5.6827459    -0.3377834    -0.0076462
N           4.5397251    -1.2087726     0.0051811
C           4.6682602    -2.4403178     0.7997990
H           5.5721942    -2.3344507     1.3968852
H           4.7607365    -3.3155950     0.1515618
H           3.7929145    -2.5588230     1.4403715
C           3.3809351    -0.8892646    -0.6614618
N           3.1971922     0.2442581    -1.2953709
C           4.2394457     1.1294109    -1.3040814
H           4.0471891     2.0619148    -1.8309698
O           6.7185695    -0.6603243     0.5615787
28
429_C12H12N2O2_0-9-10-11 (-15,) energy =    -724.4428898
C           2.3829342    -1.6817758    -0.7221283
C           1.3135037    -1.1862145     0.0483516
H           1.4468328    -0.2289652     0.5433831
C           0.1265687    -1.8913315     0.1982313
H          -0.6761449    -1.4857090     0.8062179
C          -0.0136373    -3.1280931    -0.4393481
H          -0.9313061    -3.7001160    -0.3331143
C           1.0094740    -3.6190730    -1.2381218
H           0.9052360    -4.5535454    -1.7802190
C           2.2083255    -2.9055670    -1.4016927
O           3.0688573    -3.4875119    -2.2889843
C           4.1452244    -2.7674703    -2.8867215
H           4.4182008    -3.3416949    -3.7747579
H           5.0155921    -2.7036394    -2.2268166
H           3.8334639    -1.7614107    -3.1859760
C           5.9167714     0.6239575    -0.5285622
H           6.8155028     1.2275843    -0.4800353
C           5.9712654    -0.6881104     0.0707453
N           4.7273609    -1.4009158    -0.0236997
C           4.6725544    -2.7086216     0.6473238
H           5.5662663    -2.7814189     1.2645698
H           4.6707839    -3.5248519    -0.0808729
H           3.7715389    -2.7737634     1.2587453
C           3.6403791    -0.8752522    -0.6817596
N           3.6222000     0.3245835    -1.2094615
C           4.7686522     1.0647953    -1.1117491
H           4.7138838     2.0580536    -1.5527806
O           6.9385328    -1.1936290     0.6274336
28
429_C12H12N2O2_0-9-10-11 (0,) energy =    -724.4418948
C           2.4963654    -1.8582801    -0.7370505
C           1.6246688    -1.6298805     0.3478370
H           1.9379967    -0.9268428     1.1155972
C           0.3855452    -2.2450480     0.4469359
H          -0.2639083    -2.0340322     1.2907944
C          -0.0128759    -3.1268319    -0.5637073
H          -0.9788525    -3.6216782    -0.5130056
C           0.8280580    -3.3780130    -1.6357006
H           0.5452064    -4.0668271    -2.4252235
C           2.0871253    -2.7569159    -1.7456762
O           2.7788681    -3.1684508    -2.8428543
C           4.0954829    -2.7229450    -3.1475948
H           4.4114345    -3.3312597    -3.9976931
H           4.7854079    -2.8962275    -2.3122637
H           4.1067091    -1.6646876    -3.4178610
C           5.9036736     0.6424270    -0.5973185
H           6.7512684     1.3156660    -0.5437755
C           5.8642164    -0.4499939     0.3445619
N           4.7182721    -1.2958041     0.1822265
C           4.6856722    -2.4642464     1.0726326
H           4.3687349    -2.1700074     2.0776152
H           5.6983646    -2.8623197     1.1433707
H           3.9994808    -3.2091026     0.6760279
C           3.7417467    -1.0277112    -0.7480726
N           3.8049485    -0.0204591    -1.5851467
C           4.9000770     0.7957798    -1.5040712
H           4.9187027     1.6120316    -2.2232947
O           6.6911348    -0.7044629     1.2120582
28
429_C12H12N2O2_0-9-10-11 (15,) energy =    -724.4421815
C           2.5043466    -1.8758854    -0.7230093
C           1.6656491    -1.7358733     0.4021803
H           2.0085566    -1.1102621     1.2222961
C           0.4154415    -2.3325261     0.4731817
H          -0.2092299    -2.1904946     1.3495862
C          -0.0293369    -3.1012238    -0.6080898
H          -1.0057699    -3.5769501    -0.5791937
C           0.7811684    -3.2700381    -1.7195979
H           0.4657404    -3.8776074    -2.5617163
C           2.0518263    -2.6703243    -1.7988669
O           2.7130040    -2.9759024    -2.9475228
C           4.1133415    -2.7791464    -3.1076514
H           4.3991158    -3.4107418    -3.9519291
H           4.6687705    -3.1017077    -2.2179875
H           4.3468513    -1.7352902    -3.3275855
C           5.8729438     0.6736474    -0.5998383
H           6.7074643     1.3633719    -0.5515266
C           5.8386509    -0.3944975     0.3694025
N           4.7105852    -1.2653539     0.2136197
C           4.7001817    -2.4216242     1.1200951
H           4.3696490    -2.1237309     2.1195467
H           5.7221812    -2.7928068     1.2032118
H           4.0360502    -3.1889436     0.7284652
C           3.7405883    -1.0365850    -0.7345498
N           3.8038743    -0.0553214    -1.6027190
C           4.8838832     0.7807659    -1.5291350
H           4.9019279     1.5742027    -2.2735004
O           6.6593166    -0.6137729     1.2524973
28
429_C12H12N2O2_0-9-10-11 (30,) energy =    -724.4422564
C           2.5062673    -1.8598814    -0.7261025
C           1.6933429    -1.7814210     0.4220193
H           2.0506181    -1.2011814     1.2687623
C           0.4430993    -2.3819024     0.4818363
H          -0.1645109    -2.2895463     1.3767585
C          -0.0250788    -3.0876914    -0.6312489
H          -1.0015493    -3.5636967    -0.6083565
C           0.7636371    -3.1960651    -1.7676409
H           0.4300294    -3.7546554    -2.6362378
C           2.0314608    -2.5939465    -1.8344078
O           2.6768160    -2.7948415    -3.0160386
C           4.0986731    -2.8419075    -3.0922585
H           4.3286466    -3.4658942    -3.9594662
H           4.5314110    -3.3034454    -2.1959026
H           4.5227471    -1.8452147    -3.2344231
C           5.8748224     0.6896681    -0.6562511
H           6.7096605     1.3799427    -0.6240617
C           5.8517597    -0.3682429     0.3242230
N           4.7223254    -1.2412396     0.1906385
C           4.7298196    -2.3918350     1.1041142
H           4.4211533    -2.0880309     2.1087510
H           5.7531726    -2.7632255     1.1685055
H           4.0577561    -3.1614606     0.7310348
C           3.7413224    -1.0213661    -0.7484532
N           3.7973714    -0.0523769    -1.6306391
C           4.8771130     0.7848356    -1.5779300
H           4.8880527     1.5685969    -2.3326324
O           6.6830938    -0.5791443     1.1995086
28
429_C12H12N2O2_0-9-10-11 (45,) energy =    -724.4419008
C           2.4873612    -1.8222044    -0.7122373
C           1.6844930    -1.7881894     0.4424331
H           2.0348376    -1.2248652     1.3033517
C           0.4458383    -2.4170833     0.4908739
H          -0.1580876    -2.3609211     1.3914021
C          -0.0152089    -3.1041161    -0.6355666
H          -0.9815641    -3.6005086    -0.6176320
C           0.7686803    -3.1667596    -1.7814339
H           0.4393221    -3.7057837    -2.6639294
C           2.0197876    -2.5357860    -1.8360465
O           2.6716812    -2.6459922    -3.0298907
C           4.0693969    -2.9302229    -3.0532893
H           4.2575492    -3.4363506    -4.0034219
H           4.3518963    -3.5980918    -2.2298705
H           4.6669380    -2.0154468    -3.0097422
C           5.8624453     0.7188566    -0.6835740
H           6.7018014     1.4041845    -0.6659018
C           5.8515106    -0.3400662     0.2958747
N           4.7159344    -1.2077334     0.1806927
C           4.7364948    -2.3615027     1.0897572
H           4.4453912    -2.0609487     2.1006348
H           5.7602101    -2.7345886     1.1357152
H           4.0575706    -3.1291574     0.7252565
C           3.7199443    -0.9805605    -0.7407660
N           3.7645257    -0.0108736    -1.6219320
C           4.8484754     0.8211172    -1.5869463
H           4.8500663     1.6059646    -2.3405981
O           6.6970680    -0.5562824     1.1562776
28
429_C12H12N2O2_0-9-10-11 (60,) energy =    -724.4415602
C           2.4783550    -1.7712616    -0.6935760
C           1.6728383    -1.7608754     0.4567225
H           2.0074036    -1.1993280     1.3251016
C           0.4468496    -2.4192382     0.4923004
H          -0.1627771    -2.3840334     1.3901835
C           0.0059118    -3.1081643    -0.6392924
H          -0.9499321    -3.6246461    -0.6282170
C           0.7961986    -3.1431174    -1.7849466
H           0.4796056    -3.6776926    -2.6749096
C           2.0278870    -2.4804603    -1.8262056
O           2.7079300    -2.5343906    -3.0145721
C           4.0231750    -3.0842094    -3.0035524
H           4.3179921    -3.1727200    -4.0512210
H           4.0286603    -4.0795378    -2.5397393
H           4.7427383    -2.4374864    -2.4900473
C           5.8589372     0.7623376    -0.6860037
H           6.7029762     1.4421046    -0.6770800
C           5.8623122    -0.3093646     0.2796311
N           4.7209692    -1.1700765     0.1742172
C           4.7492070    -2.3352207     1.0681615
H           4.4685564    -2.0471677     2.0857120
H           5.7726924    -2.7102372     1.0987452
H           4.0660052    -3.0977710     0.7007408
C           3.7073046    -0.9230978    -0.7237869
N           3.7356927     0.0605320    -1.5880223
C           4.8252283     0.8854528    -1.5640540
H           4.8147838     1.6824084    -2.3047821
O           6.7230728    -0.5405501     1.1210807
28
429_C12H12N2O2_0-9-10-11 (75,) energy =    -724.4415475
C           2.4742183    -1.7194633    -0.6882234
C           1.6590624    -1.7324802     0.4533612
H           1.9656293    -1.1617523     1.3261146
C           0.4557861    -2.4346259     0.4737953
H          -0.1652629    -2.4190259     1.3644870
C           0.0506869    -3.1416446    -0.6595448
H          -0.8876779    -3.6893405    -0.6571610
C           0.8526537    -3.1483810    -1.7993367
H           0.5585436    -3.6883634    -2.6939919
C           2.0576693    -2.4411135    -1.8240675
O           2.7794958    -2.4438544    -2.9928192
C           3.9673712    -3.2318891    -2.9908515
H           4.3923765    -3.1448225    -3.9928288
H           3.7420386    -4.2861050    -2.7793900
H           4.7013746    -2.8677537    -2.2606690
C           5.8483519     0.8235476    -0.6730830
H           6.6925017     1.5031863    -0.6628324
C           5.8716838    -0.2744590     0.2620733
N           4.7276846    -1.1313134     0.1571195
C           4.7645630    -2.3121834     1.0297466
H           4.4924861    -2.0420668     2.0546436
H           5.7883873    -2.6870150     1.0446356
H           4.0782715    -3.0688759     0.6558311
C           3.6972411    -0.8609257    -0.7151607
N           3.7060109     0.1474219    -1.5493358
C           4.7954510     0.9725036    -1.5238377
H           4.7684884     1.7917493    -2.2393946
O           6.7486866    -0.5275526     1.0804143
28
429_C12H12N2O2_0-9-10-11 (90,) energy =    -724.4415752
C           2.4771678    -1.6725635    -0.6865373
C           1.6361066    -1.6888677     0.4352787
H           1.9040228    -1.0963385     1.3062375
C           0.4568372    -2.4316701     0.4373745
H          -0.1874679    -2.4222449     1.3115517
C           0.1032902    -3.1722943    -0.6922058
H          -0.8177678    -3.7485326    -0.7018568
C           0.9307377    -3.1700279    -1.8139742
H           0.6706653    -3.7298140    -2.7073639
C           2.1113779    -2.4225891    -1.8183674
O           2.8899594    -2.4080330    -2.9523321
C           3.9049535    -3.4083557    -3.0003175
H           4.4058306    -3.2919883    -3.9635975
H           3.4764098    -4.4174606    -2.9300191
H           4.6399319    -3.2758769    -2.1945462
C           5.8380420     0.8890565    -0.6679387
H           6.6818460     1.5691962    -0.6598862
C           5.8983062    -0.2510172     0.2132405
N           4.7488240    -1.1012146     0.1175832
C           4.8063376    -2.3059685     0.9553057
H           4.5887375    -2.0569283     1.9985052
H           5.8222793    -2.6998002     0.9118987
H           4.0883905    -3.0401320     0.5965727
C           3.6895992    -0.7970757    -0.7058892
N           3.6625796     0.2500620    -1.4894516
C           4.7502604     1.0776898    -1.4652737
H           4.6929198     1.9319921    -2.1366563
O           6.8062616    -0.5401712     0.9847609
28
429_C12H12N2O2_0-9-10-11 (105,) energy =    -724.4419552
C           2.4693686    -1.6157186    -0.6046823
C           1.5466429    -1.5637640     0.4482270
H           1.7440807    -0.9103559     1.2939211
C           0.3818076    -2.3288121     0.4143076
H          -0.3254206    -2.2752587     1.2366937
C           0.1232822    -3.1488295    -0.6861262
H          -0.7876652    -3.7397479    -0.7249327
C           1.0279966    -3.2035210    -1.7450536
H           0.8311714    -3.8193433    -2.6177537
C           2.1977857    -2.4392052    -1.7090904
O           3.0750797    -2.4614359    -2.7696126
C           3.8994840    -3.6222416    -2.8596358
H           4.4954137    -3.5046503    -3.7669630
H           3.3008978    -4.5396956    -2.9345769
H           4.5699884    -3.7048560    -1.9938974
C           5.8582004     0.9145056    -0.5735014
H           6.7151777     1.5780473    -0.5732657
C           5.9759959    -0.3216674     0.1596954
N           4.7972677    -1.1315281     0.0968917
C           4.8979041    -2.3979803     0.8312078
H           5.0779545    -2.1913548     1.8891941
H           5.7544074    -2.9630747     0.4558438
H           3.9801155    -2.9677962     0.7099883
C           3.6808576    -0.7344695    -0.5980400
N           3.6001352     0.3978905    -1.2470988
C           4.7009899     1.2094826    -1.2277867
H           4.5962949     2.1392810    -1.7831070
O           6.9464893    -0.7173488     0.7961640
28
429_C12H12N2O2_0-9-10-11 (120,) energy =    -724.4431449
C           2.4462310    -1.5707912    -0.5578586
C           1.4144415    -1.4074268     0.3745418
H           1.5266151    -0.6631012     1.1576906
C           0.2587666    -2.1833483     0.3038987
H          -0.5286860    -2.0519488     1.0399888
C           0.1146306    -3.1152379    -0.7257636
H          -0.7885140    -3.7151342    -0.7968635
C           1.1205391    -3.2700261    -1.6783763
H           1.0009601    -3.9707616    -2.4991202
C           2.2837232    -2.4980888    -1.6007385
O           3.2775572    -2.5983329    -2.5468747
C           3.9090718    -3.8713253    -2.6789447
H           4.7104616    -3.7356900    -3.4079607
H           3.2156571    -4.6368505    -3.0496313
H           4.3342391    -4.2079285    -1.7261082
C           5.7971675     1.0087577    -0.4731852
H           6.6466214     1.6818628    -0.4697103
C           6.0068148    -0.3266983     0.0295765
N           4.8266561    -1.1347769    -0.0029348
C           4.9961685    -2.4747193     0.5661440
H           5.4439697    -2.3813761     1.5576875
H           5.6838748    -3.0573299    -0.0525287
H           4.0297875    -2.9695688     0.6308856
C           3.6410752    -0.6679138    -0.5115356
N           3.4763239     0.5543267    -0.9491610
C           4.5658575     1.3815395    -0.9184970
H           4.3883967     2.3891196    -1.2888872
O           7.0497653    -0.7976860     0.4701061
28
429_C12H12N2O2_0-9-10-11 (135,) energy =    -724.4459396
C           2.4419433    -1.5347306    -0.5370137
C           1.3322109    -1.2690392     0.2751249
H           1.3924731    -0.4459430     0.9802830
C           0.1767029    -2.0430140     0.1904710
H          -0.6666189    -1.8337351     0.8415565
C           0.1105613    -3.0789653    -0.7419368
H          -0.7871616    -3.6857840    -0.8231452
C           1.1896500    -3.3354299    -1.5871506
H           1.1252245    -4.1229076    -2.3310508
C           2.3496410    -2.5590365    -1.4987572
O           3.4257976    -2.7523155    -2.3268532
C           3.8541743    -4.0958031    -2.5448570
H           4.8547772    -4.0271443    -2.9766755
H           3.2012468    -4.6219392    -3.2527134