23
208_C6H11N3O2S_1-0-15-16 (-165,) energy =    -948.0660770
S           2.6226980    -2.0999053    -0.0706394
N           3.9444630    -1.5275318     0.7564569
C           4.7784491    -0.5080037     0.1063668
H           4.8015940    -0.6942034    -0.9672348
H           5.7952406    -0.6080065     0.5005257
H           4.4029136     0.5033251     0.3010379
C           3.8337006    -1.4175687     2.2146238
H           3.2432964    -2.2506172     2.5968660
H           3.3786230    -0.4652301     2.5158860
H           4.8431514    -1.4861418     2.6330149
O           2.0952130    -3.2569816     0.6614041
O           2.9892966    -2.2237206    -1.4829627
C           0.4327391     1.0637603     0.4138846
H           0.3404642     2.1058950     0.6869853
N           1.6428385     0.4180434     0.4533542
C           1.3798032    -0.8156028     0.0693095
N           0.0573131    -1.0122151    -0.2170382
C          -0.5793660    -2.2401099    -0.6899364
H          -1.6499931    -2.0557225    -0.7901056
H          -0.4041609    -3.0486675     0.0215357
H          -0.1679800    -2.5255892    -1.6619707
C          -0.5554646     0.2014388     0.0010305
H          -1.6164747     0.3307423    -0.1547450
23
208_C6H11N3O2S_1-0-15-16 (-150,) energy =    -948.0654140
S           2.6813026    -2.0260995    -0.2488428
N           3.9393984    -1.5220709     0.7175125
C           4.8254587    -0.4675718     0.2062875
H           4.9378190    -0.5847321    -0.8711762
H           5.8050597    -0.5990849     0.6779506
H           4.4352935     0.5319289     0.4309200
C           3.6979909    -1.4931033     2.1624431
H           3.0806877    -2.3463490     2.4452486
H           3.2135930    -0.5584394     2.4770577
H           4.6654797    -1.5832236     2.6667166
O           2.1226226    -3.2465542     0.3445409
O           3.1508581    -2.0201934    -1.6341375
C           0.4630818     1.1104505     0.2478593
H           0.3779633     2.1689473     0.4517546
N           1.6831956     0.4892885     0.1874186
C           1.4091441    -0.7755312    -0.0680414
N           0.0649553    -1.0163604    -0.1714746
C          -0.6137841    -2.2757022    -0.4770698
H          -1.6892809    -2.0918751    -0.4658137
H          -0.3533260    -3.0324184     0.2631210
H          -0.3201041    -2.6345747    -1.4669269
C          -0.5449737     0.2020639     0.0254073
H          -1.6198854     0.3023134    -0.0088274
23
208_C6H11N3O2S_1-0-15-16 (-135,) energy =    -948.0645196
S           2.5967178    -1.9661721    -0.3992445
N           3.8097979    -1.5752648     0.6802633
C           4.7354443    -0.4970441     0.3052694
H           4.9379968    -0.5545267    -0.7636886
H           5.6707230    -0.6595224     0.8510952
H           4.3296428     0.4921472     0.5492755
C           3.4616757    -1.6290170     2.1019393
H           2.8341445    -2.5005472     2.2910813
H           2.9472832    -0.7163151     2.4370548
H           4.3900700    -1.7404710     2.6708464
O           1.9782538    -3.2123933     0.0678474
O           3.1552045    -1.8626427    -1.7452088
C           0.4441121     1.2142437     0.0804247
H           0.3868669     2.2874099     0.2003989
N           1.6443328     0.5761443    -0.0810148
C           1.3403197    -0.7028016    -0.1965431
N          -0.0086312    -0.9352348    -0.1081466
C          -0.7381502    -2.2003408    -0.2059703
H          -1.8053111    -1.9720103    -0.1977480
H          -0.4878565    -2.8515630     0.6321490
H          -0.4841582    -2.7161551    -1.1334430
C          -0.5855112     0.3025530     0.0633527
H          -1.6563922     0.4135884     0.1503004
23
208_C6H11N3O2S_1-0-15-16 (-120,) energy =    -948.0635523
S           2.6562374    -1.9172642    -0.5352087
N           3.7995890    -1.5965961     0.6475818
C           4.6964078    -0.4551529     0.4184224
H           4.9793819    -0.4270033    -0.6332490
H           5.5951932    -0.6143701     1.0230629
H           4.2285142     0.4982211     0.6952393
C           3.3627161    -1.7694821     2.0345945
H           2.7670449    -2.6788889     2.1186792
H           2.7853696    -0.9073523     2.4027088
H           4.2565640    -1.8816515     2.6560184
O           2.0254818    -3.1953369    -0.1854326
O           3.3007495    -1.7151975    -1.8286233
C           0.4671204     1.2425760    -0.1206483
H           0.3938062     2.3210751    -0.0898504
N           1.6563888     0.6134914    -0.3668093
C           1.3767429    -0.6763253    -0.3401305
N           0.0530564    -0.9235741    -0.0681163
C          -0.6622753    -2.1982915     0.0175197
H          -1.7257655    -1.9761496     0.1217849
H          -0.3182728    -2.7759862     0.8764895
H          -0.4965995    -2.7893825    -0.8835202
C          -0.5322908     0.3150860     0.0611923
H          -1.5892075     0.4156173     0.2600020
23
208_C6H11N3O2S_1-0-15-16 (-105,) energy =    -948.0625266
S           2.6974683    -1.8820968    -0.6440504
N           3.7635867    -1.6187862     0.6286854
C           4.6117831    -0.4230802     0.5333208
H           4.9704278    -0.3179817    -0.4900405
H           5.4696050    -0.5712984     1.1969964
H           4.0766318     0.4907540     0.8254077
C           3.2548212    -1.9083133     1.9705664
H           2.7119904    -2.8538104     1.9580699
H           2.6056705    -1.1077602     2.3597021
H           4.1147791    -2.0112681     2.6395033
O           2.0628663    -3.1818083    -0.3974689
O           3.4219641    -1.6009225    -1.8771146
C           0.4665505     1.2553432    -0.3229844
H           0.3669361     2.3304821    -0.3841154
N           1.6369360     0.6271539    -0.6463201
C           1.3973573    -0.6601311    -0.4763164
N           0.1213066    -0.9025276    -0.0230903
C          -0.5535968    -2.1747986     0.2418707
H          -1.6001848    -1.9563400     0.4613208
H          -0.0997259    -2.6842760     1.0934180
H          -0.4855052    -2.8291261    -0.6270934
C          -0.4795483     0.3323859     0.0585876
H          -1.5111093     0.4328912     0.3629911
23
208_C6H11N3O2S_1-0-15-16 (-90,) energy =    -948.0613534
S           2.9265624    -1.6752279    -0.0852127
N           3.4655705    -1.2411060     1.4717556
C           4.2931095    -0.0236819     1.4837145
H           3.8043337     0.7618392     0.9037053
H           5.2962503    -0.1978881     1.0722361
H           4.3795042     0.3075277     2.5232245
C           4.0485960    -2.3562679     2.2345516
H           3.3893025    -3.2223546     2.1774581
H           4.1265056    -2.0338939     3.2774945
H           5.0497406    -2.6369909     1.8759916
O           2.2804156    -2.9873690     0.0507307
O           3.9600915    -1.4535679    -1.0956652
C           0.6596621     1.3566720    -0.8554166
H           0.5464886     2.3646309    -1.2302587
N           1.8739202     0.7273920    -0.8537987
C           1.6396517    -0.4665585    -0.3453770
N           0.3231744    -0.6472554     0.0003274
C          -0.3298574    -1.8130492     0.5960788
H          -1.3746098    -1.5542972     0.7766441
H           0.1495459    -2.0721082     1.5417937
H          -0.2671076    -2.6711173    -0.0737202
C          -0.3074029     0.5270027    -0.3358950
H          -1.3699869     0.6530619    -0.1876586
23
208_C6H11N3O2S_1-0-15-16 (-75,) energy =    -948.0612613
S           2.9767421    -1.6338019    -0.1993976
N           3.3637137    -1.3150453     1.4331931
C           4.1146372    -0.0620102     1.6125254
H           3.6261095     0.7462232     1.0635483
H           5.1539696    -0.1449873     1.2678171
H           4.1043407     0.1834645     2.6789423
C           3.9648030    -2.4607632     2.1353652
H           3.3709714    -3.3553187     1.9471839
H           3.9461421    -2.2367220     3.2064452
H           5.0054619    -2.6443818     1.8309020
O           2.3752697    -2.9734878    -0.2193918
O           4.0787548    -1.2945582    -1.0973714
C           0.6161785     1.3021345    -1.0616105
H           0.4495265     2.2611584    -1.5325932
N           1.8369061     0.6864845    -1.1113588
C           1.6726196    -0.4444564    -0.4548418
N           0.4005366    -0.5940122     0.0388847
C          -0.1461758    -1.6917259     0.8340880
H          -1.1723515    -1.4367198     1.1037014
H           0.4473822    -1.8220859     1.7419337
H          -0.1279379    -2.6208077     0.2630887
C          -0.2812202     0.5306795    -0.3579257
H          -1.3241180     0.6694277    -0.1123737
23
208_C6H11N3O2S_1-0-15-16 (-60,) energy =    -948.0603166
S           3.0289334    -1.6831523    -0.1162847
N           3.2928308    -1.4452780     1.5558180
C           4.0283227    -0.2043306     1.8477328
H           3.5747340     0.6326802     1.3113118
H           5.0879166    -0.2693020     1.5669887
H           3.9487996    -0.0124326     2.9221803
C           3.8450320    -2.6237655     2.2436657
H           3.2686776    -3.5076230     1.9705714
H           3.7501754    -2.4511676     3.3202695
H           4.9049969    -2.7938204     2.0053708
O           2.4556415    -3.0305355    -0.2406440
O           4.1833064    -1.2856409    -0.9183349
C           0.6625718     1.2086968    -1.0994580
H           0.4730957     2.1090324    -1.6676716
N           1.8544294     0.5437444    -1.1961401
C           1.7280160    -0.4940700    -0.3947660
N           0.5124956    -0.5307403     0.2429550
C           0.0172898    -1.5162071     1.2012525
H          -1.0678911    -1.4192546     1.2656063
H           0.4634223    -1.3472918     2.1848709
H           0.2768678    -2.5185092     0.8588053
C          -0.1761898     0.5653101    -0.2172052
H          -1.1823289     0.7753781     0.1158086
23
208_C6H11N3O2S_1-0-15-16 (-45,) energy =    -948.0578123
S           3.0463384    -1.5618349    -0.4143701
N           3.2158013    -1.4741117     1.2847473
C           3.8655030    -0.2317937     1.7319418
H           3.3896751     0.6301822     1.2574418
H           4.9385398    -0.2119180     1.4999481
H           3.7274857    -0.1506013     2.8146004
C           3.7960742    -2.6840009     1.8896450
H           3.2826111    -3.5652476     1.5058405
H           3.6404949    -2.6181070     2.9711202
H           4.8737465    -2.7790914     1.6933847
O           2.6096197    -2.9366451    -0.6920795
O           4.1930460    -0.9858253    -1.1123438
C           0.4497744     1.1263821    -1.3877468
H           0.1685567     1.9657303    -2.0088652
N           1.6530050     0.4947732    -1.5465467
C           1.6516589    -0.4690012    -0.6497688
N           0.5115783    -0.4812842     0.1175117
C           0.1099636    -1.4385051     1.1463897
H          -0.9762789    -1.3965551     1.2476581
H           0.5814980    -1.2011469     2.1024297
H           0.4048192    -2.4442829     0.8435508
C          -0.2671538     0.5426932    -0.3683960
H          -1.2431746     0.7490653     0.0465086
23
208_C6H11N3O2S_1-0-15-16 (-30,) energy =    -948.0543093
S           3.1394322    -1.4747401    -0.4271177
N           3.2052721    -1.5322696     1.2776553
C           3.7930683    -0.3234301     1.8752479
H           3.3227844     0.5689227     1.4544197
H           4.8765229    -0.2572172     1.7111716
H           3.5914381    -0.3461668     2.9509261
C           3.7595491    -2.7824140     1.8206300
H           3.2956349    -3.6334660     1.3232321
H           3.5203565    -2.8125136     2.8884939
H           4.8505831    -2.8467301     1.7015720
O           2.8594610    -2.8481857    -0.8595376
O           4.2686258    -0.7325920    -0.9838231
C           0.3666653     0.9494637    -1.5691408
H           0.0255382     1.6826245    -2.2871316
N           1.5814783     0.3359379    -1.7002660
C           1.6648563    -0.4858794    -0.6757100
N           0.5654008    -0.4184323     0.1494597
C           0.2106195    -1.2383602     1.3070026
H          -0.8653430    -1.1447352     1.4674968
H           0.7449444    -0.9113836     2.2008154
H           0.4527991    -2.2839247     1.1124786
C          -0.2741797     0.5015213    -0.4383579
H          -1.2351667     0.7368996    -0.0044710
23
208_C6H11N3O2S_1-0-15-16 (-15,) energy =    -948.0513001
S           2.8233311    -1.3332271     1.7647918
N           3.6761798    -0.9515607     0.3394271
C           3.8600858    -2.0992192    -0.5612892
H           2.9123724    -2.6249570    -0.7002504
H           4.6007776    -2.8157845    -0.1835205
H           4.1919243    -1.7170007    -1.5321633
C           4.8991350    -0.1600028     0.5426251
H           4.6934134     0.6638634     1.2246987
H           5.1981093     0.2413287    -0.4312132
H           5.7274333    -0.7597336     0.9457855
O           3.1478674    -0.2813084     2.7315311
O           2.9981047    -2.7434556     2.1100012
C          -1.0002556    -1.3674168     1.3386401
H          -1.9544075    -1.6940827     1.7287944
N           0.1709377    -1.6651224     1.9771784
C           1.1168190    -1.1165770     1.2450728
N           0.6201033    -0.4845076     0.1264433
C           1.2842373     0.3289017    -0.8912204
H           0.5082779     0.8513031    -1.4543453
H           1.8684583    -0.2898423    -1.5747099
H           1.9432157     1.0619145    -0.4255841
C          -0.7479107    -0.6440750     0.1987495
H          -1.3968216    -0.2284787    -0.5582530
23
208_C6H11N3O2S_1-0-15-16 (0,) energy =    -948.0496934
S           2.7635278    -1.6657597     1.6183837
N           3.6761243    -1.0809790     0.3104987
C           4.2236983    -2.0955696    -0.5994830
H           3.4899188    -2.8820200    -0.7738537
H           5.1395579    -2.5568843    -0.2057380
H           4.4572039    -1.6052974    -1.5510291
C           4.6048360     0.0165564     0.6105150
H           4.1411548     0.7272544     1.2940039
H           4.8420290     0.5252080    -0.3304038
H           5.5395174    -0.3411623     1.0635628
O           3.1677169    -0.9343224     2.8189927
O           2.7901353    -3.1280081     1.5765806
C          -1.0165884    -0.9639310     1.5334230
H          -1.9703847    -1.0828994     2.0288866
N           0.1341156    -1.4682838     2.0711771
C           1.0866557    -1.1507328     1.2205713
N           0.6117606    -0.4518242     0.1333506
C           1.2931698     0.0925769    -1.0388633
H           0.5391171     0.5798512    -1.6602366
H           1.7729796    -0.6987700    -1.6168569
H           2.0452493     0.8279787    -0.7494213
C          -0.7472111    -0.3358857     0.3424725
H          -1.3767709     0.1800130    -0.3675885
23
208_C6H11N3O2S_1-0-15-16 (15,) energy =    -948.0513004
S           2.7134126    -1.9697698     1.4032114
N           3.6381166    -1.1733723     0.2134830
C           4.5725905    -2.0365614    -0.5249220
H           4.0642740    -2.9501556    -0.8303300
H           5.4595036    -2.3017142     0.0678220
H           4.8966284    -1.4869124    -1.4146936
C           4.2415828     0.0834833     0.6809211
H           3.4927499     0.6945574     1.1904983
H           4.6010790     0.6322054    -0.1957024
H           5.0791857    -0.0832173     1.3704543
O           3.1932186    -1.6321615     2.7426921
O           2.6111449    -3.3675031     0.9760773
C          -0.8671484    -0.6108037     1.7707454
H          -1.7515112    -0.5376873     2.3887174
N           0.2346952    -1.3070240     2.1822183
C           1.1037709    -1.1969630     1.2003195
N           0.6302299    -0.4304363     0.1583276
C           1.2037121    -0.1343244    -1.1538488
H           0.4097560     0.2871696    -1.7736045
H           1.5782311    -1.0445862    -1.6223318
H           2.0196191     0.5866122    -1.0768233
C          -0.6457753    -0.0628647     0.5309901
H          -1.2615770     0.5428150    -0.1177015
23
208_C6H11N3O2S_1-0-15-16 (30,) energy =    -948.0543093
S           2.7348606    -2.0474263     1.2270099
N           3.6790973    -1.1036424     0.1634303
C           4.6849962    -1.8661385    -0.5926411
H           4.2249892    -2.7595274    -1.0135446
H           5.5438302    -2.1612908     0.0269970
H           5.0418991    -1.2253634    -1.4053410
C           4.2172804     0.1127872     0.7915574
H           3.4200363     0.6495906     1.3119425
H           4.6081858     0.7579049    -0.0017079
H           5.0186146    -0.1039556     1.5099358
O           3.2280128    -1.9651392     2.6002661
O           2.5725168    -3.3468126     0.5660090
C          -0.6726642    -0.3502980     1.8418893
H          -1.4819065    -0.1352566     2.5262082
N           0.3996856    -1.1081728     2.2227671
C           1.1714907    -1.1725998     1.1587121
N           0.6686007    -0.4593257     0.0944768
C           1.1446818    -0.3739385    -1.2854070
H           0.3136991    -0.0337909    -1.9066889
H           1.4691071    -1.3565889    -1.6301268
H           1.9783839     0.3251021    -1.3726718
C          -0.5274396     0.0599900     0.5378299
H          -1.1524738     0.6548861    -0.1122362
23
208_C6H11N3O2S_1-0-15-16 (45,) energy =    -948.0578122
S           2.6833121    -2.0939762     1.1204876
N           3.6796374    -1.0549270     0.1979640
C           4.7304024    -1.7535324    -0.5598438
H           4.2940169    -2.5962993    -1.0954337
H           5.5448325    -2.1163807     0.0835697
H           5.1435711    -1.0420256    -1.2817762
C           4.1848508     0.0900632     0.9720485
H           3.3619236     0.5722794     1.5057418
H           4.6100042     0.8114981     0.2673752
H           4.9525131    -0.2015946     1.7009199
O           3.1538193    -2.2288536     2.4968283
O           2.4707661    -3.2788793     0.2785899
C          -0.5478095    -0.1173501     1.8739098
H          -1.2801266     0.2289275     2.5902703
N           0.5049215    -0.9033638     2.2558159
C           1.1708938    -1.1417729     1.1455658
N           0.6212402    -0.5196305     0.0503443
C           1.0212867    -0.6117396    -1.3523827
H           0.1631475    -0.3427239    -1.9713712
H           1.3221461    -1.6356142    -1.5792182
H           1.8560795     0.0602487    -1.5626358
C          -0.4943493     0.1318905     0.5215882
H          -1.1356331     0.6947962    -0.1411699
23
208_C6H11N3O2S_1-0-15-16 (60,) energy =    -948.0603167
S           2.8476958    -2.0137254     0.8577552
N           3.8765656    -0.8860769     0.0883590
C           4.9407893    -1.5063893    -0.7175775
H           4.5104080    -2.2765982    -1.3575147
H           5.7346284    -1.9500794    -0.0993645
H           5.3792494    -0.7227206    -1.3432606
C           4.3724979     0.1534045     1.0046748
H           3.5410247     0.5756373     1.5742786
H           4.8183946     0.9487081     0.3994853
H           5.1217886    -0.2316374     1.7090080
O           3.3086520    -2.3524625     2.2018739
O           2.5953657    -3.0652328    -0.1373450
C          -0.2408803     0.0828441     1.8548616
H          -0.8829395     0.4946245     2.6213922
N           0.8410775    -0.6917632     2.1732658
C           1.3701807    -1.0256052     1.0140238
N           0.6968537    -0.4869931    -0.0546414
C           0.9893062    -0.6285074    -1.4791249
H           0.1008885    -0.3400606    -2.0436317
H           1.2418644    -1.6667935    -1.6969436
H           1.8304440     0.0108894    -1.7596997
C          -0.3459271     0.2231077     0.4891621
H          -1.0548805     0.7455701    -0.1367445
23
208_C6H11N3O2S_1-0-15-16 (75,) energy =    -948.0612612
S           2.7514199    -2.0146979     0.9081195
N           3.8448900    -0.8654704     0.2754539
C           4.9499169    -1.4589443    -0.4950698
H           4.5508657    -2.1847955    -1.2037153
H           5.6966317    -1.9493990     0.1462214
H           5.4377686    -0.6496328    -1.0471303
C           4.2933368     0.1147312     1.2775689
H           3.4326482     0.5121993     1.8202566
H           4.7811465     0.9369867     0.7450771
H           4.9967909    -0.3192194     2.0005918
O           3.1320342    -2.4481632     2.2509241
O           2.5273399    -2.9939403    -0.1632262
C          -0.2786876     0.1871971     1.8589020
H          -0.8637327     0.6988906     2.6107061
N           0.8406894    -0.5257313     2.1911174
C           1.2832207    -1.0122111     1.0489769
N           0.5128175    -0.6381791    -0.0238400
C           0.7020939    -0.9561153    -1.4378104
H          -0.0644381    -0.4300195    -2.0091297
H           0.6194474    -2.0314636    -1.6002654
H           1.6908274    -0.6237197    -1.7624275
C          -0.4974798     0.1307734     0.5007333
H          -1.2668201     0.5514915    -0.1303776
23
208_C6H11N3O2S_1-0-15-16 (90,) energy =    -948.0613534
S           2.7773421    -1.9725022     0.7864312
N           3.9335991    -0.8004173     0.3477733
C           5.0482700    -1.3313473    -0.4528453
H           4.6561855    -1.9472483    -1.2621476
H           5.7549991    -1.9243630     0.1459268
H           5.5809463    -0.4759759    -0.8798345
C           4.3672222     0.0410808     1.4751324
H           3.4952283     0.4024642     2.0241170
H           4.9032843     0.9001082     1.0598563
H           5.0256612    -0.4987386     2.1686797
O           3.0683451    -2.5542779     2.0960828
O           2.5906215    -2.8313687    -0.3905065
C          -0.1484322     0.3444440     1.7843237
H          -0.6503482     0.9427500     2.5322570
N           0.9951177    -0.3478826     2.0730970
C           1.3168880    -0.9601351     0.9503801
N           0.4400718    -0.6906425    -0.0713104
C           0.4529877    -1.1625453    -1.4560788
H          -0.3763387    -0.6837056    -1.9795259
H           0.3424824    -2.2466779    -1.4923143
H           1.3934308    -0.8907861    -1.9387862
C          -0.5071657     0.1449805     0.4709318
H          -1.3402299     0.5015961    -0.1171001
23
208_C6H11N3O2S_1-0-15-16 (105,) energy =    -948.0625277
S           2.3240018    -2.4252280     0.8987216
N           3.8117296    -1.6466414     0.8190637
C           4.1428871    -1.0110777    -0.4575383
H           3.8838021    -1.6824553    -1.2766309
H           5.2239404    -0.8420977    -0.4767185
H           3.6371353    -0.0416678    -0.5923386
C           4.2168269    -0.8890207     2.0107748
H           3.9641171    -1.4609943     2.9029217
H           3.7322720     0.0955383     2.0622260
H           5.3029132    -0.7591852     1.9677681
O           2.2301173    -3.0394102     2.2171917
O           2.1956727    -3.2116892    -0.3332580
C          -0.0191319     0.6206309     1.2943697
H          -0.3583428     1.4561877     1.8913322
N           0.9175133    -0.2580977     1.7629026
C           1.0757236    -1.1434885     0.7962447
N           0.3007678    -0.8638875    -0.3054659
C           0.1420754    -1.6120557    -1.5542427
H          -0.6517530    -1.1328764    -2.1299560
H          -0.1248700    -2.6480368    -1.3454231
H           1.0683145    -1.6043964    -2.1308348
C          -0.4147553     0.2634112     0.0261354
H          -1.1352979     0.6889782    -0.6569385
23
208_C6H11N3O2S_1-0-15-16 (120,) energy =    -948.0635509
S           2.3540196    -2.3830589     0.7876572
N           3.8469933    -1.6230290     0.8383139
C           4.2359614    -0.8784992    -0.3612176
H           3.9734329    -1.4543444    -1.2491321
H           5.3227394    -0.7513757    -0.3391550
H           3.7670853     0.1165572    -0.4070136
C           4.2352090    -0.9957723     2.1093298
H           3.9184332    -1.6320806     2.9349483
H           3.7930134     0.0016455     2.2280008
H           5.3273557    -0.9189024     2.1201441
O           2.1796584    -3.0828536     2.0560992
O           2.2781095    -3.0927370    -0.4946596
C           0.0875664     0.7272444     1.1617433
H          -0.1837094     1.6147080     1.7169855
N           1.0807291    -0.1098106     1.5904097
C           1.1322057    -1.0742642     0.6904980
N           0.2248964    -0.8966053    -0.3256146
C          -0.0612950    -1.7458859    -1.4835708
H          -0.9189281    -1.3179223    -2.0055910
H          -0.2958257    -2.7615716    -1.1629497
H           0.7986483    -1.7860002    -2.1529931
C          -0.4547857     0.2581061    -0.0120596
H          -1.2509627     0.6261861    -0.6423721
23
208_C6H11N3O2S_1-0-15-16 (135,) energy =    -948.0645184
S           2.3844355    -2.3331756     0.6440673
N           3.8674809    -1.5892822     0.8361498
C           4.3231814    -0.7449388    -0.2705180
H           4.0821919    -1.2256399    -1.2191947
H           5.4111800    -0.6519357    -0.1957298
H           3.8776221     0.2601174    -0.2351658
C           4.2173363    -1.1014614     2.1776784
H           3.8463399    -1.8047324     2.9225120
H           3.7989799    -0.1064807     2.3718221
H           5.3098601    -1.0636271     2.2411164
O           2.1318594    -3.1274512     1.8438770
O           2.3725896    -2.9513047    -0.6869338
C           0.1797868     0.8268654     1.0069392
H          -0.0296703     1.7597726     1.5120722
N           1.2269125     0.0297964     1.3837148
C           1.1814961    -1.0054750     0.5666281
N           0.1551666    -0.9188194    -0.3393083
C          -0.2386722    -1.8645030    -1.3847140
H          -1.1581362    -1.4939353    -1.8410761
H          -0.4180911    -2.8526027    -0.9573173
H           0.5455944    -1.9498123    -2.1373528
C          -0.4942433     0.2594899    -0.0491640
H          -1.3620726     0.5730750    -0.6106056
23
208_C6H11N3O2S_1-0-15-16 (150,) energy =    -948.0654135
S           2.4607159    -2.2696057     0.4784091
N           3.9148247    -1.5393091     0.8286362
C           4.4581959    -0.6228783    -0.1770898
H           4.2574705    -1.0162363    -1.1740660
H           5.5426128    -0.5735517    -0.0355231
H           4.0366475     0.3872579    -0.0802428
C           4.1876334    -1.1748081     2.2254449
H           3.7457492    -1.9221883     2.8838809
H           3.7876123    -0.1839201     2.4699739
H           5.2738412    -1.1822358     2.3648524
O           2.1355984    -3.1714182     1.5831021
O           2.5319528    -2.7717054    -0.8985624
C           0.2688742     0.9016196     0.8633201
H           0.1008259     1.8697371     1.3147040
N           1.3736837     0.1513473     1.1709831
C           1.2545758    -0.9433041     0.4446789
N           0.1258913    -0.9448456    -0.3307038
C          -0.3519378    -1.9865110    -1.2397368
H          -1.3169324    -1.6701710    -1.6389390
H          -0.4763523    -2.9297797    -0.7026319
H           0.3603360    -2.1363282    -2.0518171
C          -0.5127661     0.2436576    -0.0571294
H          -1.4472373     0.5003307    -0.5341698
23
208_C6H11N3O2S_1-0-15-16 (165,) energy =    -948.0660731
S           2.5062647    -2.2390115     0.3033294
N           3.9305557    -1.5508395     0.8099399
C           4.5762012    -0.5917542    -0.0922511
H           4.4394683    -0.9164661    -1.1240065
H           5.6477543    -0.5900453     0.1325049
H           4.1750582     0.4215025     0.0389062
C           4.0955680    -1.2804344     2.2442720
H           3.5916546    -2.0590122     2.8167444
H           3.6936346    -0.2978444     2.5175859
H           5.1665187    -1.3184400     2.4697425
O           2.1008777    -3.2310419     1.3014108
O           2.6631533    -2.6258217    -1.1032185
C           0.3394959     0.9526436     0.7026853
H           0.2080371     1.9531428     1.0910942
N           1.4892175     0.2402852     0.9344833
C           1.3023308    -0.9110705     0.3197776
N           0.0888708    -0.9888655    -0.3053245
C          -0.4507191    -2.1143384    -1.0660353
H          -1.4621706    -1.8593836    -1.3857986
H          -0.4846044    -3.0076379    -0.4370105
H           0.1772543    -2.3161279    -1.9356361
C          -0.5358992     0.2127829    -0.0568872
H          -1.5249943     0.4208086    -0.4378589
23
208_C6H11N3O2S_1-0-15-16 (180,) energy =    -948.0663310
S           2.5455376    -2.1676199     0.1034860
N           3.9258851    -1.5372228     0.7749821
C           4.6771626    -0.5459680    -0.0046501
H           4.6089455    -0.7936736    -1.0640045
H           5.7271238    -0.6064237     0.3003227
H           4.3018418     0.4701030     0.1672459
C           3.9590810    -1.3555867     2.2311620
H           3.4038825    -2.1633346     2.7081144
H           3.5383079    -0.3866498     2.5260287
H           5.0045586    -1.4148381     2.5513952
O           2.0677047    -3.2494052     0.9704183
O           2.8011412    -2.4203003    -1.3178177
C           0.3770910     1.0173847     0.5564870
H           0.2694507     2.0397996     0.8914141
N           1.5636517     0.3405039     0.6945801
C           1.3292990    -0.8541875     0.1892239
N           0.0510755    -0.9956281    -0.2722685
C          -0.5354845    -2.1805229    -0.8945862
H          -1.5867819    -1.9778474    -1.1037809
H          -0.4529124    -3.0337284    -0.2173748
H          -0.0121098    -2.4121223    -1.8255010
C          -0.5663678     0.2126114    -0.0373891
H          -1.5981423     0.3790974    -0.3102000
