23
208_C6H11N3O2S_15-0-1-2 (-165,) energy =    -948.0586719
S           2.6303431    -1.5189873    -0.2522211
N           3.8740329    -0.7099671     0.5583271
C           5.2008292    -1.1325162     0.0690040
H           5.2222665    -1.0764506    -1.0195751
H           5.4628472    -2.1502284     0.3917976
H           5.9333273    -0.4291269     0.4745021
C           3.7749316    -0.7715034     2.0278371
H           2.8101806    -0.3795731     2.3483762
H           4.5554505    -0.1184100     2.4284992
H           3.9186960    -1.7896689     2.4143745
O           2.3757928    -2.8599472     0.3069007
O           2.8913263    -1.4019518    -1.6911027
C          -0.1181388     1.0123818     0.8170597
H          -0.4222626     1.9544814     1.2517863
N           1.2039942     0.6569034     0.7431854
C           1.2004718    -0.5315705     0.1772681
N          -0.0591170    -0.9714894    -0.1358629
C          -0.4460079    -2.2229831    -0.7872468
H          -1.5236780    -2.2000625    -0.9556959
H          -0.1826552    -3.0741272    -0.1570107
H           0.0686032    -2.3182210    -1.7464127
C          -0.9106559     0.0274650     0.2765080
H          -1.9792539    -0.0585181     0.1450891
23
208_C6H11N3O2S_15-0-1-2 (-150,) energy =    -948.0601869
S           2.5435181    -1.6797531    -0.0605830
N           3.8189353    -0.8051461     0.5948856
C           5.1158415    -1.0488256    -0.0551918
H           4.9928527    -1.0213842    -1.1374524
H           5.5604061    -2.0106647     0.2384487
H           5.7878020    -0.2405696     0.2481685
C           3.8741674    -0.8017680     2.0645025
H           2.9041107    -0.5115632     2.4679265
H           4.6032702    -0.0416410     2.3597663
H           4.1754012    -1.7753086     2.4737598
O           2.2622412    -2.9136479     0.6927660
O           2.7625324    -1.7712339    -1.5099084
C          -0.1154881     0.9962061     0.8759191
H          -0.3962612     1.9329214     1.3372827
N           1.1869755     0.5647422     0.8768162
C           1.1579488    -0.5848614     0.2371829
N          -0.0981704    -0.9340863    -0.1810295
C          -0.4982634    -2.1392059    -0.9062347
H          -1.5545709    -2.0510647    -1.1642044
H          -0.3416434    -3.0222204    -0.2820581
H           0.0951856    -2.2368706    -1.8178291
C          -0.9214486     0.0901850     0.2280487
H          -1.9800762     0.0780297     0.0139623
23
208_C6H11N3O2S_15-0-1-2 (-135,) energy =    -948.0606774
S           2.3985218    -1.7078213    -0.0066760
N           3.6912147    -0.9017802     0.6637963
C           4.9486140    -0.8866737    -0.0882210
H           4.7356012    -0.8338668    -1.1551281
H           5.5628445    -1.7759015     0.1134499
H           5.5075729     0.0061144     0.2101490
C           3.8104972    -0.9597808     2.1229829
H           2.8318300    -0.8175982     2.5821594
H           4.4529773    -0.1314738     2.4362980
H           4.2427920    -1.9084566     2.4680459
O           2.0453564    -2.9102149     0.7639839
O           2.6336575    -1.8246188    -1.4516349
C          -0.1255137     1.1187753     0.8441765
H          -0.3551943     2.0845728     1.2728695
N           1.1539481     0.6228676     0.8510507
C           1.0610096    -0.5460452     0.2534172
N          -0.2148448    -0.8462520    -0.1420884
C          -0.6805128    -2.0589238    -0.8124752
H          -1.7247829    -1.9177084    -1.0950621
H          -0.5896825    -2.9181193    -0.1436111
H          -0.0813619    -2.2391858    -1.7077484
C          -0.9823835     0.2317982     0.2360597
H          -2.0422475     0.2657783     0.0300982
23
208_C6H11N3O2S_15-0-1-2 (-120,) energy =    -948.0610852
S           2.4166320    -1.8746295    -0.0264119
N           3.7157866    -1.1474792     0.6783894
C           4.9151145    -0.8347806    -0.0914784
H           4.6952680    -0.9060746    -1.1559045
H           5.7266995    -1.5328091     0.1545685
H           5.2398260     0.1863898     0.1414276
C           3.8129364    -1.0986766     2.1346226
H           2.8856544    -1.4508843     2.5861086
H           3.9875708    -0.0655861     2.4542134
H           4.6343136    -1.7367851     2.4865144
O           2.0041650    -3.0642855     0.7314931
O           2.6791641    -1.9855179    -1.4660642
C          -0.0015663     1.0517827     0.7764649
H          -0.1867438     2.0380600     1.1793688
N           1.2567396     0.5039731     0.7819488
C           1.1073883    -0.6795116     0.2248931
N          -0.1836867    -0.9367018    -0.1480466
C          -0.7024732    -2.1470095    -0.7818089
H          -1.7525855    -1.9844187    -1.0291095
H          -0.6073088    -2.9977657    -0.1033324
H          -0.1414171    -2.3561189    -1.6957671
C          -0.9020726     0.1828095     0.2063241
H          -1.9632952     0.2524157     0.0167169
23
208_C6H11N3O2S_15-0-1-2 (-105,) energy =    -948.0629890
S           2.4941404    -1.9395279    -0.0781080
N           3.7898092    -1.3280469     0.7331493
C           4.9094383    -0.7147671     0.0258168
H           4.8176502    -0.9144932    -1.0408427
H           5.8453320    -1.1539240     0.3912477
H           4.9312285     0.3704119     0.1920877
C           3.7354340    -1.1922603     2.1861474
H           2.9576605    -1.8435164     2.5876228
H           3.5283431    -0.1551850     2.4748075
H           4.6964293    -1.5097922     2.6071469
O           2.0172987    -3.1530257     0.5980855
O           2.8254734    -1.9807403    -1.5053426
C           0.1784960     1.0738041     0.6810686
H           0.0429211     2.0867208     1.0345145
N           1.4169728     0.4840087     0.6622367
C           1.2043237    -0.7272345     0.1888081
N          -0.1094719    -0.9588418    -0.1132038
C          -0.6965648    -2.1784483    -0.6646114
H          -1.7537656    -1.9927614    -0.8602428
H          -0.5854155    -3.0035959     0.0413301
H          -0.1969710    -2.4418993    -1.6002835
C          -0.7742145     0.2041567     0.2040161
H          -1.8412063     0.2975571     0.0635076
23
208_C6H11N3O2S_15-0-1-2 (-90,) energy =    -948.0651852
S           2.5395744    -2.0509541    -0.1306353
N           3.8732287    -1.4684671     0.6525986
C           4.8289998    -0.6277609    -0.0692208
H           4.7794605    -0.8559534    -1.1331355
H           5.8345525    -0.8632539     0.2961971
H           4.6244816     0.4391370     0.0896244
C           3.8303133    -1.3293286     2.1085999
H           3.1510000    -2.0744396     2.5247213
H           3.5046441    -0.3245338     2.4033310
H           4.8344561    -1.5226745     2.5014730
O           2.0579348    -3.2401284     0.5815603
O           2.8445055    -2.1239442    -1.5621656
C           0.3104055     1.0358686     0.5921670
H           0.2048573     2.0552626     0.9369753
N           1.5295493     0.4056163     0.5870813
C           1.2814741    -0.8010456     0.1183205
N          -0.0359333    -0.9916187    -0.1925772
C          -0.6544151    -2.1997405    -0.7344375
H          -1.7000300    -1.9815627    -0.9568152
H          -0.5883901    -3.0151168    -0.0111799
H          -0.1437643    -2.4974182    -1.6536040
C          -0.6661111     0.1933536     0.1150338
H          -1.7286429     0.3197290    -0.0329283
23
208_C6H11N3O2S_15-0-1-2 (-75,) energy =    -948.0663223
S           2.5094217    -2.1689301    -0.0272477
N           3.8977016    -1.5609603     0.6466149
C           4.6573992    -0.5647352    -0.1177040
H           4.5765188    -0.7881843    -1.1814446
H           5.7086664    -0.6471083     0.1774827
H           4.2982133     0.4526988     0.0789648
C           3.9462948    -1.4162467     2.1062487
H           3.3801703    -2.2252373     2.5682399
H           3.5452294    -0.4474033     2.4277198
H           4.9927586    -1.5024095     2.4170425
O           2.0446344    -3.2833071     0.8041567
O           2.7455092    -2.3670454    -1.4609686
C           0.3486948     0.9959773     0.5713678
H           0.2544177     2.0143121     0.9223221
N           1.5442068     0.3244424     0.6419363
C           1.2905258    -0.8649955     0.1339476
N          -0.0073988    -1.0071163    -0.2688136
C          -0.6245110    -2.1940049    -0.8568142
H          -1.6367016    -1.9379795    -1.1733088
H          -0.6593509    -3.0038410    -0.1238885
H          -0.0428593    -2.5203526    -1.7219022
C          -0.6189630     0.1938298     0.0141201
H          -1.6635225     0.3584495    -0.2061500
23
208_C6H11N3O2S_15-0-1-2 (-60,) energy =    -948.0655550
S           2.4217050    -2.2446641     0.2351406
N           3.8890874    -1.5912215     0.6791977
C           4.4264606    -0.5259844    -0.1783316
H           4.2123264    -0.7593627    -1.2224291
H           5.5131689    -0.5087294    -0.0464152
H           4.0069117     0.4528577     0.0815909
C           4.1345545    -1.3986923     2.1167329
H           3.7035057    -2.2317408     2.6707860
H           3.7133151    -0.4521932     2.4769583
H           5.2189191    -1.3985203     2.2680944
O           2.0260713    -3.2081564     1.2646217
O           2.5189503    -2.6615746    -1.1685789
C           0.3305475     0.9909369     0.6800069
H           0.2268744     1.9918949     1.0755472
N           1.4752988     0.2603223     0.8736638
C           1.2558752    -0.8827742     0.2535935
N           0.0204340    -0.9414340    -0.3303116
C          -0.5719148    -2.0606777    -1.0612131
H          -1.5333639    -1.7378905    -1.4633699
H          -0.7257927    -2.9098031    -0.3894275
H           0.0901149    -2.3650777    -1.8729352
C          -0.5784603     0.2673669    -0.0552990
H          -1.5746485     0.4928685    -0.4066024
23
208_C6H11N3O2S_15-0-1-2 (-45,) energy =    -948.0626248
S           2.3542143    -2.3043297     0.4969197
N           3.8899104    -1.6486304     0.6813346
C           4.2300331    -0.5369347    -0.2178513
H           3.8628566    -0.7532992    -1.2235990
H           5.3217624    -0.4699783    -0.2648841
H           3.8161387     0.4151588     0.1337969
C           4.3441472    -1.4286059     2.0653283
H           4.0438296    -2.2715438     2.6855639
H           3.9431968    -0.4975932     2.4864670
H           5.4374562    -1.3763436     2.0433902
O           2.0488078    -3.0742300     1.7028643
O           2.3004374    -2.9464200    -0.8221654
C           0.3111351     0.9767998     0.7243133
H           0.1848354     1.9709438     1.1304704
N           1.4001628     0.2081547     1.0381621
C           1.2334677    -0.9132780     0.3625560
N           0.0744978    -0.9235301    -0.3687811
C          -0.4670147    -1.9852866    -1.2179107
H          -1.4461408    -1.6619325    -1.5752085
H          -0.5777764    -2.9091030    -0.6465333
H           0.1980001    -2.1742852    -2.0610634
C          -0.5188666     0.2959926    -0.1357303
H          -1.4580443     0.5590922    -0.5997777
23
208_C6H11N3O2S_15-0-1-2 (-30,) energy =    -948.0581088
S           2.2869398    -2.3075827     0.7142314
N           3.8615752    -1.6779889     0.6713673
C           4.0685785    -0.4988261    -0.1807749
H           3.5671140    -0.6408231    -1.1417139
H           5.1426635    -0.4175890    -0.3757082
H           3.7062110     0.4226346     0.2896525
C           4.5188999    -1.5369784     1.9833548
H           4.3256692    -2.4195326     2.5901476
H           4.1835847    -0.6417624     2.5245309
H           5.5948736    -1.4630355     1.7956840
O           2.0688935    -2.8808165     2.0420943
O           2.1115494    -3.1392414    -0.4832337
C           0.2455132     0.9757295     0.7074413
H           0.0807504     1.9689254     1.1021198
N           1.2833052     0.1967438     1.1383300
C           1.1838381    -0.9234531     0.4467582
N           0.1154828    -0.9196546    -0.4156915
C          -0.3522371    -1.9607383    -1.3335937
H          -1.2745510    -1.6043689    -1.7957058
H          -0.5468466    -2.8875295    -0.7924986
H           0.3980973    -2.1597380    -2.0990873
C          -0.4871147     0.3048115    -0.2447451
H          -1.3676335     0.5771154    -0.8079341
23
208_C6H11N3O2S_15-0-1-2 (-15,) energy =    -948.0536781
S           2.2790146    -2.2498644     0.8943129
N           3.8597452    -1.6484316     0.6530181
C           4.0009116    -0.3856340    -0.0825087
H           3.3904495    -0.4049243    -0.9889034
H           5.0478430    -0.3047172    -0.3919176
H           3.7246835     0.4892021     0.5188227
C           4.7100034    -1.6938593     1.8549146
H           4.6045136    -2.6558023     2.3540951
H           4.4769811    -0.8930157     2.5701361
H           5.7452049    -1.5850785     1.5161457
O           2.1502434    -2.6371178     2.2993647
O           2.0093237    -3.2379802    -0.1584459
C           0.1939318     0.9964163     0.6937913
H          -0.0137247     1.9912839     1.0633348
N           1.2068393     0.2387788     1.2093460
C           1.1715556    -0.8930028     0.5308940
N           0.1719869    -0.9134361    -0.4127413
C          -0.2288410    -1.9738224    -1.3411107
H          -1.0706751    -1.5987029    -1.9258270
H          -0.5272783    -2.8683270    -0.7931286
H           0.5976200    -2.2356122    -2.0015993
C          -0.4570049     0.3038991    -0.3020568
H          -1.2990323     0.5559955    -0.9298614
23
208_C6H11N3O2S_15-0-1-2 (0,) energy =    -948.0511767
S           2.1988495    -2.1549591     1.0605245
N           3.7703259    -1.6141017     0.6248732
C           3.9046404    -0.2905782     0.0057172
H           3.2193669    -0.1932790    -0.8391968
H           4.9242908    -0.2238127    -0.3869630
H           3.7284203     0.5379596     0.7043955
C           4.7621165    -1.8613779     1.6832422
H           4.6776193    -2.8859978     2.0470550
H           4.6598283    -1.1747993     2.5344202
H           5.7507701    -1.7365751     1.2307311
O           2.1514663    -2.3278005     2.5133685
O           1.8542659    -3.2863736     0.1897490
C           0.0850432     1.0464630     0.6196863
H          -0.1672734     2.0464552     0.9450604
N           1.0599096     0.3174421     1.2379300
C           1.0940840    -0.8318971     0.5907936
N           0.1813280    -0.8890696    -0.4368325
C          -0.1352508    -1.9841106    -1.3579768
H          -0.9019295    -1.6243013    -2.0464410
H          -0.5041862    -2.8500357    -0.8074407
H           0.7523161    -2.2841312    -1.9152727
C          -0.4701890     0.3203578    -0.4104127
H          -1.2609902     0.5439456    -1.1114592
23
208_C6H11N3O2S_15-0-1-2 (15,) energy =    -948.0536768
S           2.7458795    -0.4753320    -0.6595714
N           3.9864814    -0.9982512     0.3938264
C           3.5836032    -1.7251707     1.6044790
H           2.8595731    -2.5049148     1.3544529
H           3.1552592    -1.0685719     2.3716334
H           4.4770182    -2.2193767     1.9991983
C           5.0087086     0.0256641     0.6717385
H           5.3061294     0.5200143    -0.2516975
H           5.8766385    -0.4968032     1.0863643
H           4.6658302     0.7842277     1.3887156
O           2.6122914    -1.4771891    -1.7252815
O           3.0047354     0.9219210    -1.0080399
C          -0.2536308    -0.2279680     1.7628708
H          -0.6928200     0.1914531     2.6576615
N           1.0202989     0.0808066     1.3789563
C           1.2205914    -0.6006829     0.2662348
N           0.1259422    -1.3464217    -0.1021101
C          -0.0814405    -2.2069767    -1.2698522
H          -1.1051144    -2.5828658    -1.2243187
H           0.6221714    -3.0398820    -1.2613619
H           0.0663814    -1.6420658    -2.1904088
C          -0.8218030    -1.1010338     0.8628552
H          -1.7985832    -1.5596039     0.8148847
23
208_C6H11N3O2S_15-0-1-2 (30,) energy =    -948.0581096
S           2.8036433    -0.6736601    -0.6994309
N           4.0520711    -0.9939230     0.4039832
C           3.7019554    -1.8348604     1.5568998
H           3.1024268    -2.6876948     1.2278143
H           3.1558978    -1.2778641     2.3271848
H           4.6349211    -2.2266018     1.9745593
C           4.8616824     0.1743996     0.7944512
H           5.0828594     0.7802736    -0.0821573
H           5.8000373    -0.2101019     1.2068839
H           4.3618608     0.7953860     1.5503030
O           2.6857833    -1.8404731    -1.5830889
O           3.0363710     0.6541773    -1.2669632
C          -0.1546678    -0.1993089     1.7439920
H          -0.5550442     0.2477333     2.6435508
N           1.1413091     0.0044708     1.3587810
C           1.2823319    -0.6879812     0.2436133
N           0.1281477    -1.3314896    -0.1291726
C          -0.1408713    -2.1714755    -1.2984513
H          -1.1982692    -2.4409472    -1.2760964
H           0.4756694    -3.0702485    -1.2725963
H           0.0802338    -1.6280872    -2.2179586
C          -0.7955386    -1.0143689     0.8392602
H          -1.8061633    -1.3925712     0.7919823
23
208_C6H11N3O2S_15-0-1-2 (45,) energy =    -948.0626274
S           2.8687154    -0.9321514    -0.6721869
N           4.0983093    -1.0199091     0.4700708
C           3.8666770    -1.9343263     1.5976092
H           3.4094662    -2.8568853     1.2328198
H           3.2310715    -1.4815606     2.3671548
H           4.8421188    -2.1878044     2.0249481
C           4.6987067     0.2615347     0.8814178
H           4.8204124     0.9023444     0.0097392
H           5.6859880     0.0376294     1.2981165
H           4.0915368     0.7754823     1.6376470
O           2.7919608    -2.2361439    -1.3423470
O           3.0705059     0.2872303    -1.4549157
C          -0.0817199    -0.2267093     1.7336205
H          -0.4586043     0.2284229     2.6391921
N           1.2403122    -0.1438180     1.3866742
C           1.3393970    -0.8125996     0.2530541
N           0.1381859    -1.3193568    -0.1689852
C          -0.1611518    -2.0867769    -1.3787080
H          -1.2341279    -2.2850074    -1.3929584
H           0.3958422    -3.0237873    -1.3804273
H           0.1125611    -1.5155198    -2.2685031
C          -0.7770906    -0.9424983     0.7869420
H          -1.8183210    -1.2173240     0.7037704
23
208_C6H11N3O2S_15-0-1-2 (60,) energy =    -948.0655440
S           2.8555375    -1.1713090    -0.5995809
N           4.0852727    -1.0034924     0.5138979
C           4.0723013    -1.9258900     1.6575457
H           3.7620016    -2.9162556     1.3208082
H           3.4066318    -1.5738417     2.4542222
H           5.0963464    -1.9983528     2.0381652
C           4.5159190     0.3641094     0.8416683
H           4.4813557     0.9787932    -0.0571389
H           5.5524189     0.3088043     1.1902351
H           3.8889777     0.8103808     1.6233485
O           2.8159764    -2.5755603    -1.0226237
O           2.9985550    -0.1059259    -1.5944895
C          -0.0619385    -0.2688841     1.7904855
H          -0.4139917     0.1575872     2.7196013
N           1.2753674    -0.3156838     1.4880463
C           1.3336820    -0.9005857     0.3077077
N           0.1006692    -1.2290960    -0.1843666
C          -0.2099660    -1.8645888    -1.4637757
H          -1.2944471    -1.9435519    -1.5529433
H           0.2428752    -2.8563964    -1.5110244
H           0.1776868    -1.2575765    -2.2859437
C          -0.8019482    -0.8231112     0.7726170
H          -1.8641123    -0.9676388     0.6400118
23
208_C6H11N3O2S_15-0-1-2 (75,) energy =    -948.0663310
S           2.7826604    -1.3067839    -0.5131380
N           4.0208137    -0.9250976     0.5219497
C           4.2798747    -1.8265516     1.6509881
H           4.0742765    -2.8528893     1.3469898
H           3.6688543    -1.5648744     2.5232903
H           5.3413164    -1.7446765     1.9070869
C           4.3069186     0.4942562     0.7596232
H           4.1201010     1.0578109    -0.1546083
H           5.3682077     0.5841454     1.0140101
H           3.6974904     0.8963607     1.5781153
O           2.7869157    -2.7577435    -0.7193896
O           2.8501921    -0.3979390    -1.6626702
C          -0.0798997    -0.2894547     1.8982102
H          -0.4097624     0.0823325     2.8584570
N           1.2535624    -0.4479926     1.6120642
C           1.2792709    -0.9042570     0.3757577
N           0.0327085    -1.0525298    -0.1638912
C          -0.3007357    -1.5581372    -1.4936549
H          -1.3620772    -1.3827801    -1.6759090
H          -0.0872209    -2.6285083    -1.5568415
H           0.2914710    -1.0304595    -2.2439990
C          -0.8476826    -0.6590978     0.8192269
H          -1.9153958    -0.6753511     0.6566312
23
208_C6H11N3O2S_15-0-1-2 (90,) energy =    -948.0652468
S           3.1373687    -1.3725389    -0.4141562
N           4.2653899    -0.7970702     0.6479602
C           4.7217237    -1.6456879     1.7497450
H           4.6179057    -2.6922544     1.4661495
H           4.1511291    -1.4532862     2.6675446
H           5.7810897    -1.4310818     1.9273816
C           4.3874637     0.6498527     0.8277650
H           4.1076360     1.1557685    -0.0972471
H           5.4365149     0.8810873     1.0418529
H           3.7553750     1.0043369     1.6509787
O           3.2260957    -2.8345342    -0.4290411
O           3.2472317    -0.6139491    -1.6664928
C           0.0840653    -0.2978361     1.7138600
H          -0.3222835     0.0477437     2.6544480
N           1.4296756    -0.5132838     1.5532909
C           1.5614258    -0.9045956     0.3014473
N           0.3688968    -0.9596855    -0.3666863
C           0.1265629    -1.4104558    -1.7354459
H          -0.7985299    -0.9554624    -2.0948412
H           0.0350620    -2.5004622    -1.7700751
H           0.9573911    -1.0960551    -2.3676492
C          -0.5868259    -0.5713871     0.5454962
H          -1.6320703    -0.5222737     0.2770626
23
208_C6H11N3O2S_15-0-1-2 (105,) energy =    -948.0630191
S           3.1482720    -1.3534661    -0.3400980
N           4.2215430    -0.7526982     0.7542361
C           4.8944918    -1.6221629     1.7139723
H           4.7254881    -2.6628803     1.4411176
H           4.5197910    -1.4478207     2.7312826
H           5.9711464    -1.4167334     1.6861162
C           4.3428043     0.6916942     0.9302293
H           3.9489187     1.2039828     0.0511008
H           5.4041702     0.9480593     1.0261829
H           3.7982912     1.0247054     1.8215587
O           3.2385237    -2.8156983    -0.3158768
O           3.2919679    -0.6313956    -1.6119178
C           0.0225301    -0.2070239     1.6412490
H          -0.4204607     0.1616920     2.5562346
N           1.3710795    -0.4374975     1.5427412
C           1.5525722    -0.8551292     0.3059808
N           0.3884238    -0.9136733    -0.4118133
C           0.1949049    -1.3943028    -1.7783536
H          -0.7118053    -0.9401886    -2.1829610
H           0.0941696    -2.4840158    -1.7911525
H           1.0521814    -1.1021606    -2.3851143
C          -0.6009587    -0.4994220     0.4512281
H          -1.6334066    -0.4472376     0.1375193
23
208_C6H11N3O2S_15-0-1-2 (120,) energy =    -948.0610825
S           2.6048992    -1.3607320    -0.2502529
N           3.7343746    -0.9077418     0.8590154
C           4.6215559    -1.8863004     1.4790431
H           4.2431217    -2.8910657     1.2954202
H           4.6596776    -1.7079709     2.5603619
H           5.6364324    -1.8044199     1.0671351
C           4.0823960     0.5031279     1.0028849
H           3.4012595     1.1210240     0.4180191
H           5.1059322     0.6844376     0.6492001
H           4.0007536     0.7930440     2.0560786
O           2.6140429    -2.8251159    -0.3425006
O           2.7179249    -0.5537536    -1.4736786
C          -0.3808421    -0.0876069     1.8756253
H          -0.7715391     0.3509363     2.7835917
N           0.9615939    -0.3246101     1.7184476
C           1.0693582    -0.8481004     0.5151684
N          -0.1334159    -0.9659502    -0.1268041
C          -0.3842211    -1.5250488    -1.4535914
H          -1.4378179    -1.3793214    -1.6965361
H          -0.1497003    -2.5928922    -1.4636260
H           0.2388713    -1.0161614    -2.1915470
C          -1.0729032    -0.4792439     0.7536934
H          -2.1230296    -0.4610115     0.5009034
23
208_C6H11N3O2S_15-0-1-2 (135,) energy =    -948.0606721
S           2.5371998    -1.3086840    -0.1573286
N           3.6248427    -0.9125064     1.0399279
C           4.6442166    -1.9059704     1.3869498
H           4.2210187    -2.9066369     1.3085874
H           4.9496041    -1.7264482     2.4228409
H           5.5286676    -1.8368834     0.7375250
C           4.0406851     0.4910916     1.1038092
H           3.1751690     1.1414638     0.9743742
H           4.7990591     0.7355839     0.3480911
H           4.4504809     0.6701383     2.1022762
O           2.5063241    -2.7712214    -0.2814740
O           2.7316961    -0.4882852    -1.3631022
C          -0.5167865     0.0572772     1.8159393
H          -0.9419835     0.5459788     2.6817712
N           0.8317341    -0.1792645     1.7224392
C           0.9848282    -0.7780949     0.5605795
N          -0.1928031    -0.9405284    -0.1183147
C          -0.3924350    -1.5733853    -1.4207096
H          -1.4443355    -1.4769162    -1.6934993
H          -0.1195190    -2.6304229    -1.3719753
H           0.2282973    -1.0786242    -2.1709321
C          -1.1658224    -0.4071610     0.6963154
H          -2.2063063    -0.4144877     0.4061698
23
208_C6H11N3O2S_15-0-1-2 (150,) energy =    -948.0613315
S           2.7521726    -0.6762939    -0.5843060
N           3.4763137    -1.2135905     0.8588201
C           4.5290059    -2.2228986     0.6725574
H           4.1812190    -2.9916229    -0.0173141
H           4.7222611    -2.6786608     1.6487306
H           5.4670915    -1.7921248     0.2926106
C           3.8492776    -0.1218534     1.7721366
H           3.0158528     0.5765033     1.8720614
H           4.7354352     0.4265279     1.4258414
H           4.0565818    -0.5653594     2.7510585
O           2.6420551    -1.8520839    -1.4579671
O           3.3677741     0.5587697    -1.0678975
C          -0.5097904     0.7824678     0.8816008
H          -1.0329106     1.6022008     1.3545417
N           0.8109138     0.8807261     0.5403570
C           1.1083978    -0.2784292    -0.0135987
N           0.0418115    -1.1425973    -0.0414222
C          -0.0389583    -2.5076500    -0.5620516
H          -1.0494524    -2.8756777    -0.3761738
H           0.6819889    -3.1507500    -0.0542338
H           0.1733454    -2.5226462    -1.6313115
C          -1.0020371    -0.4529289     0.5290737
H          -1.9830740    -0.8965324     0.6166754
23
208_C6H11N3O2S_15-0-1-2 (165,) energy =    -948.0608326
S           2.7358674    -0.6396612    -0.6361569
N           3.3822404    -1.3529761     0.7820065
C           4.6081566    -2.1234956     0.4983332
H           4.4201209    -2.8175447    -0.3217468
H           4.8526608    -2.6948786     1.3987558
H           5.4608011    -1.4777243     0.2441746
C           3.5891699    -0.3745834     1.8661220
H           2.6798907     0.2082578     2.0250076
H           4.4175509     0.3143306     1.6531067
H           3.8098819    -0.9364333     2.7788042
O           2.6032904    -1.7274342    -1.6133968
O           3.4336865     0.5962872    -0.9889686
C          -0.5586226     0.9151483     0.6548785
H          -1.1144890     1.7755490     1.0013652
N           0.7597473     1.0127594     0.3047780
C           1.1020403    -0.2041615    -0.0687484
N           0.0685395    -1.1024346     0.0314854
C           0.0675448    -2.5336691    -0.2694618
H          -0.8903771    -2.9455499     0.0525316
H           0.8772356    -3.0261990     0.2725673
H           0.2074667    -2.6992436    -1.3385007
C          -1.0029172    -0.3784124     0.4935041
H          -1.9647462    -0.8426540     0.6563267
23
208_C6H11N3O2S_15-0-1-2 (180,) energy =    -948.0584997
S           2.7391932    -0.7412778    -0.6789003
N           3.3931099    -1.4820380     0.7334368
C           4.7477008    -1.9973630     0.4392042
H           4.7101860    -2.6312709    -0.4489384
H           5.0612882    -2.6076816     1.2910476
H           5.4764104    -1.1901214     0.2842207
C           3.4365868    -0.5685827     1.8933785
H           2.4421213    -0.1754833     2.1085044
H           4.1257788     0.2733433     1.7399412
H           3.7716577    -1.1555569     2.7538244
O           2.5371147    -1.8249840    -1.6479455
O           3.4967928     0.4537034    -1.0525862
C          -0.4612483     1.0074619     0.5976595
H          -0.9778133     1.9053571     0.9080212
N           0.8540677     1.0357900     0.2256984
C           1.1425377    -0.2108353    -0.0889107
N           0.0768779    -1.0624413     0.0710022
C           0.0134817    -2.5032584    -0.1768003
H          -0.9249887    -2.8763455     0.2368623
H           0.8526190    -2.9996271     0.3135207
H           0.0600550    -2.7087733    -1.2475179
C          -0.9579923    -0.2748625     0.5100723
H          -1.9339909    -0.6919164     0.7117880
