22
353_C10H11N_0-6-18-16 (-165,) energy =    -442.4269141
C           1.6456384    -1.5547631     0.6439860
H           1.1901192    -0.9492528     1.4411473
H           2.4360303    -2.1397004     1.1230351
C           0.6013890    -2.4283393    -0.0943635
H          -0.2771781    -2.6495137     0.5196463
H           1.0556547    -3.3880148    -0.3663079
C           2.1873259    -0.6463800    -0.4461529
C           1.4194782    -0.7103617    -1.5487050
H           1.5843363    -0.1446421    -2.4619296
C           0.2480176    -1.6462014    -1.3863925
H           0.1029136    -2.3032394    -2.2536958
H          -0.6875049    -1.0742894    -1.2780628
C           5.6217784     1.7086634     0.2891022
H           6.5156058     2.2742737     0.5343567
C           4.8476299     2.0154222    -0.8317373
H           5.1223460     2.8374376    -1.4877394
C           3.7110169     1.2603715    -1.0922092
H           3.0820378     1.4905693    -1.9460720
C           3.3742916     0.1991637    -0.2300050
N           4.1157244    -0.0847775     0.8609666
C           5.2040212     0.6536689     1.0990295
H           5.7714570     0.3869816     1.9899735
22
353_C10H11N_0-6-18-16 (-150,) energy =    -442.4261064
C           1.5748558    -1.4713792     0.6739094
H           1.0829445    -0.7895095     1.3835107
H           2.3184767    -2.0299004     1.2499525
C           0.5576872    -2.3822156    -0.0577722
H          -0.3634346    -2.5342719     0.5133916
H           1.0047742    -3.3696200    -0.2199678
C           2.2081228    -0.6710355    -0.4505941
C           1.5106744    -0.8074151    -1.5913725
H           1.7562951    -0.3238947    -2.5334910
C           0.3074243    -1.7034171    -1.4306025
H           0.2024015    -2.4288914    -2.2474997
H          -0.6188597    -1.1068372    -1.4316771
C           5.6383422     1.6955109     0.2602597
H           6.5359436     2.2604412     0.4931885
C           4.7644616     2.0970146    -0.7508861
H           4.9605818     2.9962197    -1.3292541
C           3.6263754     1.3371037    -0.9971572
H           2.9127057     1.6365641    -1.7580471
C           3.3957604     0.1761270    -0.2364754
N           4.2278878    -0.1960054     0.7583140
C           5.3148510     0.5475572     0.9839457
H           5.9613384     0.2084480     1.7926231
22
353_C10H11N_0-6-18-16 (-135,) energy =    -442.4245968
C           1.5122354    -1.3914117     0.6821331
H           0.9985767    -0.6370380     1.2969132
H           2.2028957    -1.9179744     1.3484296
C           0.5141434    -2.3362856    -0.0326794
H          -0.4415129    -2.4209678     0.4940152
H           0.9441929    -3.3427188    -0.0886728
C           2.2342956    -0.7085093    -0.4662210
C           1.5949694    -0.9121615    -1.6289745
H           1.9069132    -0.5034206    -2.5869338
C           0.3603761    -1.7658276    -1.4681029
H           0.2821945    -2.5538066    -2.2279893
H          -0.5480969    -1.1511034    -1.5708072
C           5.6441355     1.6853280     0.2483749
H           6.5389803     2.2557637     0.4786826
C           4.6871191     2.1600909    -0.6478439
H           4.8122050     3.1235294    -1.1354161
C           3.5567414     1.3865289    -0.8956356
H           2.7785598     1.7319660    -1.5688382
C           3.4219410     0.1433642    -0.2540930
N           4.3325064    -0.3011986     0.6367642
C           5.4106141     0.4542225     0.8636316
H           6.1257332     0.0563381     1.5828028
22
353_C10H11N_0-6-18-16 (-120,) energy =    -442.4224614
C           1.4543228    -1.2953937     0.6774581
H           0.9270036    -0.4776931     1.1918133
H           2.0917336    -1.7770199     1.4270097
C           0.4744112    -2.2796487    -0.0087904
H          -0.5098037    -2.3009632     0.4695356
H           0.8844720    -3.2943795     0.0453963
C           2.2569693    -0.7347245    -0.4841770
C           1.6727919    -1.0171306    -1.6573804
H           2.0410567    -0.6874415    -2.6257346
C           0.4118192    -1.8321988    -1.4939321
H           0.3574000    -2.6818708    -2.1863253
H          -0.4756313    -1.2126954    -1.6990996
C           5.6515476     1.6800400     0.2400332
H           6.5447171     2.2536402     0.4691801
C           4.6183332     2.2162659    -0.5262793
H           4.6798423     3.2313028    -0.9103805
C           3.4953429     1.4321534    -0.7811801
H           2.6621259     1.8160711    -1.3613206
C           3.4460920     0.1229349    -0.2767342
N           4.4305609    -0.3849317     0.4927112
C           5.5010474     0.3795180     0.7258483
H           6.2799812    -0.0694241     1.3411698
22
353_C10H11N_0-6-18-16 (-105,) energy =    -442.4201599
C           1.3852074    -1.1903951     0.6609547
H           0.8438799    -0.3226657     1.0680842
H           1.9667712    -1.6122522     1.4890215
C           0.4306012    -2.2213581     0.0082297
H          -0.5812468    -2.1847440     0.4239342
H           0.8178262    -3.2313939     0.1825762
C           2.2666591    -0.7506229    -0.4966040
C           1.7500064    -1.1313310    -1.6716947
H           2.1775862    -0.8906152    -2.6417516
C           0.4680089    -1.9147866    -1.5129474
H           0.4441577    -2.8256977    -2.1244366
H          -0.3949807    -1.3090360    -1.8312969
C           5.6621010     1.6661534     0.2339371
H           6.5582440     2.2371090     0.4582589
C           4.5575992     2.2554988    -0.3779761
H           4.5651045     3.3094902    -0.6438161
C           3.4364033     1.4695098    -0.6376643
H           2.5531361     1.8895099    -1.1088522
C           3.4590179     0.1105220    -0.2898301
N           4.5147622    -0.4543116     0.3287928
C           5.5834509     0.3124275     0.5666199
H           6.4217995    -0.1814259     1.0566015
22
353_C10H11N_0-6-18-16 (-90,) energy =    -442.4184876
C           1.2919932    -1.0707877     0.6235961
H           0.7284394    -0.1709364     0.9150852
H           1.8123169    -1.4158725     1.5254126
C           0.3783831    -2.1602934     0.0065423
H          -0.6624104    -2.0748130     0.3343879
H           0.7367712    -3.1482298     0.3159743
C           2.2564933    -0.7433893    -0.5054479
C           1.8350253    -1.2521143    -1.6684703
H           2.3403810    -1.1151731    -2.6208806
C           0.5383856    -2.0154502    -1.5304116
H           0.5571675    -2.9859124    -2.0423743
H          -0.2926683    -1.4484621    -1.9782732
C           5.6770895     1.6506237     0.2010654
H           6.5836684     2.2128098     0.4047429
C           4.5066164     2.2829461    -0.2148911
H           4.4730054     3.3615051    -0.3460461
C           3.3770020     1.5054719    -0.4609022
H           2.4463523     1.9580369    -0.7900751
C           3.4536853     0.1150564    -0.2906438
N           4.5779344    -0.4968160     0.1269265
C           5.6545574     0.2638719     0.3551167
H           6.5480370    -0.2665007     0.6824402
22
353_C10H11N_0-6-18-16 (-75,) energy =    -442.4184486
C           1.1813423    -0.9385548     0.5704310
H           0.5864136    -0.0248821     0.7261147
H           1.6247475    -1.1855543     1.5429177
C           0.3275158    -2.0971310    -0.0062639
H          -0.7388156    -1.9874081     0.2151281
H           0.6562712    -3.0423585     0.4394697
C           2.2392920    -0.7168955    -0.5001737
C           1.9354945    -1.3689659    -1.6279737
H           2.5349745    -1.3431670    -2.5338096
C           0.6277039    -2.1181769    -1.5285663
H           0.6906456    -3.1384067    -1.9279452
H          -0.1570383    -1.6092916    -2.1097155
C           5.7004696     1.6359190     0.1494543
H           6.6209232     2.1872928     0.3172182
C           4.4830505     2.2907273    -0.0348593
H           4.4268493     3.3761913    -0.0198741
C           3.3386246     1.5267859    -0.2467611
H           2.3729402     1.9993510    -0.4017690
C           3.4427354     0.1268230    -0.2676032
N           4.6167387    -0.5078056    -0.0927272
C           5.7074106     0.2418027     0.1093583
H           6.6388185    -0.3065878     0.2453385
22
353_C10H11N_0-6-18-16 (-60,) energy =    -442.4202206
C           1.0829988    -0.8178719     0.5000371
H           0.4746486     0.1002673     0.5153988
H           1.4427715    -0.9636342     1.5259254
C           0.2744367    -2.0326207    -0.0251040
H          -0.8061753    -1.9040775     0.0925607
H           0.5585699    -2.9261203     0.5417547
C           2.2288109    -0.7027212    -0.4949916
C           2.0237965    -1.4811101    -1.5653619
H           2.7092000    -1.5587924    -2.4042651
C           0.7035204    -2.2099504    -1.5056213
H           0.7887617    -3.2657902    -1.7927881
H          -0.0226876    -1.7614289    -2.2014137
C           5.7119759     1.6258853     0.1015586
H           6.6398167     2.1735840     0.2375100
C           4.4739267     2.2670078     0.1434180
H           4.4078175     3.3399468     0.3047314
C           3.3215980     1.5081189    -0.0371040
H           2.3406256     1.9743983    -0.0187109
C           3.4352051     0.1231287    -0.2470229
N           4.6308688    -0.4949334    -0.3049760
C           5.7282163     0.2502427    -0.1285702
H           6.6751394    -0.2862769    -0.1766064
22
353_C10H11N_0-6-18-16 (-45,) energy =    -442.4229022
C           1.0186339    -0.7141785     0.4155859
H           0.4169469     0.1999165     0.2903478
H           1.3008076    -0.7529581     1.4748470
C           0.2359467    -1.9730627    -0.0389744
H          -0.8490852    -1.8344419     0.0011472
H           0.4816132    -2.8093863     0.6250020
C           2.2332806    -0.7075499    -0.5014586
C           2.0868736    -1.5842895    -1.5058482
H           2.8295145    -1.7504975    -2.2799853
C           0.7529620    -2.2871119    -1.4674114
H           0.8349684    -3.3649545    -1.6572856
H           0.0797104    -1.8906234    -2.2437363
C           5.7104964     1.6287654     0.0738101
H           6.6371404     2.1816785     0.1954361
C           4.4703856     2.2244233     0.3010403
H           4.4001908     3.2678920     0.5974325
C           3.3192644     1.4609369     0.1314887
H           2.3372460     1.8959600     0.2927843
C           3.4358730     0.1131946    -0.2516992
N           4.6346855    -0.4570867    -0.4912762
C           5.7293789     0.2909286    -0.3239421
H           6.6775142    -0.2088072    -0.5198687
22
353_C10H11N_0-6-18-16 (-30,) energy =    -442.4254054
C           0.9796623    -0.6311511     0.3255625
H           0.4057721     0.2757255     0.0780718
H           1.1918041    -0.5772075     1.4005716
C           0.2007098    -1.9139878    -0.0627218
H          -0.8821677    -1.7581623    -0.0961798
H           0.3939755    -2.6935851     0.6827061
C           2.2474190    -0.7239578    -0.5103585
C           2.1368658    -1.6771767    -1.4496104
H           2.9175746    -1.9122116    -2.1656178
C           0.7909708    -2.3552592    -1.4275087
H           0.8627955    -3.4463938    -1.5224633
H           0.1699174    -2.0164208    -2.2718684
C           5.7051274     1.6404881     0.0546638
H           6.6269892     2.2028208     0.1687089
C           4.4745817     2.1693373     0.4396261
H           4.4058797     3.1699154     0.8588234
C           3.3289224     1.3962139     0.2717972
H           2.3552044     1.7827959     0.5569434
C           3.4421240     0.1042902    -0.2714280
N           4.6332625    -0.4005542    -0.6588699
C           5.7204336     0.3544949    -0.4912011
H           6.6612687    -0.0928093    -0.8106470
22
353_C10H11N_0-6-18-16 (-15,) energy =    -442.4271138
C           0.9484164    -0.5511441     0.2464931
H           0.4173795     0.3452775    -0.1097783
H           1.0928146    -0.4155413     1.3257584
C           0.1612046    -1.8450792    -0.0830506
H          -0.9138959    -1.6708556    -0.1911000
H           0.2930284    -2.5659586     0.7317046
C           2.2593138    -0.7364383    -0.5018422
C           2.1746037    -1.7547099    -1.3747672
H           2.9840984    -2.0514457    -2.0331227
C           0.8162349    -2.4059643    -1.3720303
H           0.8684576    -3.5023848    -1.3763719
H           0.2507805    -2.1251998    -2.2748689
C           5.7037997     1.6536617     0.0344663
H           6.6218200     2.2243171     0.1371251
C           4.4978558     2.1083131     0.5627101
H           4.4446675     3.0568297     1.0909954
C           3.3550682     1.3284981     0.4009911
H           2.4014656     1.6605487     0.7988719
C           3.4466917     0.1049828    -0.2853340
N           4.6163208    -0.3293051    -0.8049304
C           5.6994086     0.4295163    -0.6409614
H           6.6212191     0.0399851    -1.0722338
22
353_C10H11N_0-6-18-16 (0,) energy =    -442.4275744
C           0.9197525    -0.4953033     0.1525798
H           0.4361672     0.3831109    -0.3015945
H           0.9908414    -0.2867942     1.2276057
C           0.1288010    -1.7976668    -0.1322697
H          -0.9325834    -1.6141524    -0.3260222
H           0.1894732    -2.4562318     0.7415032
C           2.2711406    -0.7531158    -0.4951869
C           2.2197007    -1.8289965    -1.2996397
H           3.0584877    -2.1742839    -1.8943575
C           0.8555194    -2.4661259    -1.3280103
H           0.8914150    -3.5599222    -1.2425907
H           0.3524739    -2.2529985    -2.2847127
C           5.6986930     1.6711338     0.0083187
H           6.6117124     2.2518534     0.0981713
C           4.5287895     2.0410077     0.6666338
H           4.5003128     2.9293845     1.2923858
C           3.3898340     1.2534619     0.5122855
H           2.4656853     1.5214695     1.0135769
C           3.4472730     0.1097211    -0.3029404
N           4.5848475    -0.2457639    -0.9415025
C           5.6643125     0.5176728    -0.7817248
H           6.5580267     0.1934418    -1.3143465
22
353_C10H11N_0-6-18-16 (15,) energy =    -442.4268810
C           0.8988705    -0.4439024     0.0594925
H           0.4625109     0.4033497    -0.4906678
H           0.8957695    -0.1571578     1.1186762
C           0.1103736    -1.7571464    -0.1787772
H          -0.9331286    -1.5786108    -0.4561611
H           0.1033267    -2.3481029     0.7440737
C           2.2854925    -0.7595993    -0.4802429
C           2.2686972    -1.8882576    -1.2102539
H           3.1348796    -2.2751797    -1.7362107
C           0.9036356    -2.5209546    -1.2706139
H           0.9236598    -3.6047686    -1.0975031
H           0.4629359    -2.3817419    -2.2706940
C           5.7021163     1.6912302    -0.0202763
H           6.6103241     2.2816509     0.0538179
C           4.5856533     1.9657838     0.7653785
H           4.5970621     2.7831495     1.4818893
C           3.4491597     1.1727633     0.6228270
H           2.5676487     1.3660879     1.2249937
C           3.4526463     0.1222753    -0.3112982
N           4.5410257    -0.1451168    -1.0676769
C           5.6200733     0.6212099    -0.9166092
H           6.4722063     0.3704574    -1.5478891
22
353_C10H11N_0-6-18-16 (30,) energy =    -442.4253056
C           0.8585851    -0.3904719    -0.0520276
H           0.4708703     0.4039412    -0.7071273
H           0.7833237    -0.0061837     0.9730499
C           0.0777821    -1.7177510    -0.2259376
H          -0.9475912    -1.5620794    -0.5753814
H           0.0165672    -2.2312977     0.7403424
C           2.2746449    -0.7569983    -0.4709853
C           2.2922474    -1.9363802    -1.1141298
H           3.1828493    -2.3650671    -1.5617537
C           0.9278383    -2.5680392    -1.2055624
H           0.9278652    -3.6349616    -0.9476423
H           0.5484724    -2.5047326    -2.2379288
C           5.6882035     1.7045246    -0.0377547
H           6.5935526     2.3006835     0.0253713
C           4.6363017     1.8749467     0.8596334
H           4.7000246     2.6101050     1.6577988
C           3.4999064     1.0816760     0.7232215
H           2.6689254     1.1897705     1.4128198
C           3.4362575     0.1382516    -0.3171855
N           4.4636602    -0.0338722    -1.1778289
C           5.5453734     0.7320995    -1.0309727
H           6.3467023     0.5627068    -1.7496813
22
353_C10H11N_0-6-18-16 (45,) energy =    -442.4231527
C           0.8379544    -0.3430583    -0.1713120
H           0.5070413     0.3870831    -0.9249398
H           0.7008827     0.1409317     0.8041525
C           0.0568001    -1.6768575    -0.2745553
H          -0.9456384    -1.5488558    -0.6947127
H          -0.0629965    -2.1050821     0.7272859
C           2.2742892    -0.7543963    -0.4608816
C           2.3187736    -1.9802448    -1.0048385
H           3.2292097    -2.4498702    -1.3638094
C           0.9548503    -2.6106865    -1.1273917
H           0.9265597    -3.6524894    -0.7831206
H           0.6393386    -2.6291115    -2.1826647
C           5.6769870     1.7252566    -0.0460187
H           6.5768193     2.3304665     0.0106574
C           4.7007799     1.7735285     0.9480434
H           4.8225177     2.4156575     1.8166126
C           3.5680609     0.9757676     0.8147744
H           2.7943951     0.9841986     1.5765470
C           3.4317264     0.1530084    -0.3170396
N           4.3859464     0.0937082    -1.2698115
C           5.4669618     0.8650140    -1.1253369
H           6.2093414     0.7917698    -1.9194573
22
353_C10H11N_0-6-18-16 (60,) energy =    -442.4207440
C           0.8265188    -0.2983799    -0.3023805
H           0.5630034     0.3637383    -1.1407405
H           0.6413074     0.2786521     0.6130667
C           0.0278365    -1.6251052    -0.3368557
H          -0.9412822    -1.5231937    -0.8350817
H          -0.1674301    -1.9574976     0.6892386
C           2.2701187    -0.7545276    -0.4553084
C           2.3280816    -2.0236218    -0.8811040
H           3.2496785    -2.5389164    -1.1351974
C           0.9623981    -2.6459250    -1.0378800
H           0.8914021    -3.6502109    -0.6008813
H           0.7171128    -2.7580985    -2.1056826
C           5.6574021     1.7512229    -0.0583363
H           6.5485894     2.3698047    -0.0088632
C           4.7765736     1.6549766     1.0187942
H           4.9676411     2.1930234     1.9437439
C           3.6508105     0.8469969     0.8917327
H           2.9468572     0.7408931     1.7121758
C           3.4288520     0.1590049    -0.3134676
N           4.2886710     0.2378035    -1.3484530
C           5.3650493     1.0202299    -1.2099615
H           6.0320494     1.0624063    -2.0703242
22
353_C10H11N_0-6-18-16 (75,) energy =    -442.4188529
C           0.8383108    -0.2558802    -0.4561774
H           0.6515254     0.3303276    -1.3684864
H           0.6184675     0.4112848     0.3875640
C           0.0031366    -1.5602628    -0.4182634
H          -0.9200259    -1.4883389    -1.0016710
H          -0.2830850    -1.7776578     0.6172379
C           2.2737656    -0.7590958    -0.4630385
C           2.3250046    -2.0680104    -0.7360046
H           3.2444826    -2.6342257    -0.8560308
C           0.9551095    -2.6725973    -0.9321383
H           0.8208003    -3.6209293    -0.3962457
H           0.7865042    -2.8947388    -1.9973005
C           5.6318156     1.7916557    -0.0749267
H           6.5066511     2.4338153    -0.0337426
C           4.8718070     1.5231719     1.0631984
H           5.1419168     1.9483595     2.0264383
C           3.7615913     0.6918880     0.9440609
H           3.1476996     0.4535239     1.8079303
C           3.4406682     0.1504747    -0.3111141
N           4.1765809     0.4026062    -1.4099849
C           5.2393741     1.2059939    -1.2783782
H           5.8093192     1.3880002    -2.1887400
22
353_C10H11N_0-6-18-16 (90,) energy =    -442.4185229
C           0.8755103    -0.2372235    -0.6279332
H           0.7609874     0.2566603    -1.6043011
H           0.6366582     0.5201068     0.1298087
C          -0.0054503    -1.5064818    -0.5036910
H          -0.8783905    -1.4805703    -1.1633323
H          -0.3778131    -1.5908607     0.5236853
C           2.2906943    -0.7760793    -0.4888538
C           2.3137768    -2.1103025    -0.5786738
H           3.2170842    -2.7136582    -0.5467602
C           0.9408316    -2.6984078    -0.8067074
H           0.7352692    -3.5698086    -0.1719096
H           0.8409530    -3.0449712    -1.8468147
C           5.5923735     1.8416943    -0.0664774
H           6.4398725     2.5192905    -0.0208968
C           4.9710348     1.3734899     1.0903289
H           5.3232180     1.6772220     2.0728220
C           3.8881080     0.5064132     0.9644208
H           3.3771156     0.1166539     1.8398411
C           3.4633241     0.1249825    -0.3171523
N           4.0537001     0.5838933    -1.4366864
C           5.0922480     1.4162093    -1.2975366
H           5.5484525     1.7621290    -2.2243008
22
353_C10H11N_0-6-18-16 (105,) energy =    -442.4199013
C           0.9074151    -0.2329308    -0.7910996
H           0.8576420     0.1561500    -1.8183593
H           0.6490615     0.6050083    -0.1315575
C          -0.0100492    -1.4647292    -0.5804157
H          -0.8401254    -1.4995949    -1.2928981
H          -0.4469722    -1.4243772     0.4239373
C           2.2985138    -0.7783984    -0.5104249
C           2.2922775    -2.1146020    -0.4329474
H           3.1753751    -2.7262679    -0.2671397
C           0.9226534    -2.7007594    -0.6841954
H           0.6560075    -3.4894698     0.0310387
H           0.8791918    -3.1634501    -1.6821031
C           5.5604689     1.8767019    -0.0483203
H           6.3880204     2.5776068     0.0087071
C           5.0727154     1.2326025     1.0871988
H           5.5097016     1.4205858     2.0646219
C           4.0067478     0.3458143     0.9490199
H           3.5930990    -0.1736407     1.8078942
C           3.4698834     0.1166977    -0.3266445
N           3.9224089     0.7577070    -1.4220933
C           4.9464370     1.6041570    -1.2720240
H           5.2925725     2.0951114    -2.1808659
22
353_C10H11N_0-6-18-16 (120,) energy =    -442.4221882
C           0.9317996    -0.2471459    -0.9300545
H           0.9489120     0.0365037    -1.9916459
H           0.6470339     0.6553428    -0.3756138
C          -0.0134245    -1.4439378    -0.6525420
H          -0.8028537    -1.5423355    -1.4042019
H          -0.5052877    -1.3010907     0.3164893
C           2.2944411    -0.7723195    -0.5089718
C           2.2650272    -2.0961621    -0.3013308
H           3.1278810    -2.6970636    -0.0251002
C           0.9058165    -2.6923943    -0.5798926
H           0.5855470    -3.4063417     0.1899537
H           0.9161526    -3.2496470    -1.5293206
C           5.5415090     1.8925260    -0.0323291
H           6.3594774     2.6039955     0.0311130
C           5.1721259     1.1076737     1.0586521
H           5.6940805     1.1944858     2.0082197
C           4.1101767     0.2173405     0.9161662
H           3.7809955    -0.4023972     1.7442981
C           3.4594877     0.1223768    -0.3240646
N           3.7940430     0.9042147    -1.3706570
C           4.8153715     1.7519904    -1.2165853
H           5.0636079     2.3583478    -2.0869943
22
353_C10H11N_0-6-18-16 (135,) energy =    -442.4245523
C           0.9595728    -0.2700059    -1.0454264
H           1.0502212    -0.0899188    -2.1253070
H           0.6492580     0.6834291    -0.6020692
C          -0.0145031    -1.4307730    -0.7213999
H          -0.7628298    -1.5871913    -1.5046463
H          -0.5564493    -1.2035122     0.2038699
C           2.2844740    -0.7590118    -0.4852994
C           2.2295358    -2.0645508    -0.1781002
H           3.0679668    -2.6467231     0.1961460
C           0.8852496    -2.6743252    -0.4935380
H           0.5114654    -3.3253444     0.3074314
H           0.9492755    -3.3040115    -1.3946532
C           5.5299204     1.9047167    -0.0181812
H           6.3443418     2.6201230     0.0457451
C           5.2686908     1.0034046     1.0134572
H           5.8746435     1.0012008     1.9159193
C           4.2051376     0.1158557     0.8769706
H           3.9549563    -0.5860410     1.6662544
C           3.4418640     0.1383705    -0.3026068
N           3.6724412     1.0325836    -1.2860886
C           4.6967022     1.8776586    -1.1377927
H           4.8563001     2.5777366    -1.9571583
22
353_C10H11N_0-6-18-16 (150,) energy =    -442.4263238
C           1.0002686    -0.2950022    -1.1385813
H           1.1727562    -0.2041112    -2.2195457
H           0.6686613     0.6932672    -0.8008206
C          -0.0063523    -1.4216739    -0.7972127
H          -0.7036726    -1.6301428    -1.6146554
H          -0.6048676    -1.1248904     0.0718499
C           2.2750212    -0.7429244    -0.4448711
C           2.1887200    -2.0275058    -0.0593781
H           2.9934218    -2.5918544     0.4050710
C           0.8633480    -2.6503737    -0.4222064
H           0.4306060    -3.2430361     0.3943461
H           0.9830017    -3.3420087    -1.2710204
C           5.5246979     1.9202595    -0.0120291
H           6.3371521     2.6384714     0.0443011
C           5.3670205     0.9198144     0.9481261
H           6.0558402     0.8405251     1.7852724
C           4.3022165     0.0337380     0.8273850
H           4.1342930    -0.7401798     1.5697324
C           3.4268053     0.1575329    -0.2666747
N           3.5622571     1.1426464    -1.1785070
C           4.5902504     1.9862010    -1.0458637
H           4.6672141     2.7625047    -1.8063363
22
353_C10H11N_0-6-18-16 (165,) energy =    -442.4272301
C           1.0415092    -0.3328557    -1.2181296
H           1.2970118    -0.3221324    -2.2866455
H           0.6963040     0.6791619    -0.9818333
C           0.0002643    -1.4263247    -0.8751029
H          -0.6361330    -1.6892953    -1.7258126
H          -0.6586976    -1.0648998    -0.0771320
C           2.2565057    -0.7342278    -0.3998946
C           2.1290366    -1.9906342     0.0630306
H           2.8877620    -2.5317860     0.6223733
C           0.8261602    -2.6288995    -0.3487250
H           0.3295249    -3.1575161     0.4754708
H           0.9996151    -3.3826331    -1.1331749
C           5.5048124     1.9393232    -0.0071529
H           6.3125271     2.6633866     0.0410053
C           5.4491798     0.8488642     0.8632747
H           6.2173738     0.7012826     1.6180239
C           4.3886312    -0.0423901     0.7585048
H           4.3099835    -0.8877250     1.4346749
C           3.4051665     0.1694763    -0.2264253
N           3.4514740     1.2330703    -1.0551483
C           4.4781996     2.0811714    -0.9398469
H           4.4761771     2.9235830    -1.6306444
22
353_C10H11N_0-6-18-16 (180,) energy =    -442.4272745
C           1.0938301    -0.3793554    -1.2985776
H           1.4251382    -0.4554029    -2.3439716
H           0.7480671     0.6505293    -1.1677115
C           0.0157236    -1.4338995    -0.9487415
H          -0.5605588    -1.7589256    -1.8205722
H          -0.6946098    -1.0047671    -0.2325924
C           2.2436558    -0.7246294    -0.3677999
C           2.0622215    -1.9374608     0.1857988
H           2.7597297    -2.4355822     0.8539168
C           0.7843485    -2.5963666    -0.2690956
H           0.2219426    -3.0538530     0.5552833
H           1.0052892    -3.4118863    -0.9762763
C           5.4870294     1.9605967     0.0143993
H           6.2878887     2.6920186     0.0654070
C           5.5247659     0.7825895     0.7637709
H           6.3641249     0.5695854     1.4207454
C           4.4720221    -0.1169709     0.6583075
H           4.4790056    -1.0379898     1.2321868
C           3.3935723     0.1791404    -0.1978007
N           3.3598966     1.3183551    -0.9200194
C           4.3817591     2.1728641    -0.8077557
H           4.3104617     3.0777808    -1.4101778
