29
179_C11H15NO2_5-6-24-25 (-165,) energy =    -633.3917487
N           1.7901279    -1.6125774     0.2430726
C           2.4472646    -1.3644040     1.5209663
H           1.7048845    -1.0136909     2.2487047
H           3.2153867    -0.6027108     1.4196228
H           2.8970506    -2.2883225     1.9109045
C           2.2870661    -1.2634957    -0.9850487
C           3.5035578    -0.3059036    -1.0695037
O           3.4174362     0.8437411    -0.2363098
C           2.4014246     1.7529907    -0.6309993
H           2.4720162     2.6112704     0.0415306
H           1.3991746     1.3103722    -0.5457275
H           2.5495099     2.0904518    -1.6674723
H           3.4811447     0.0171047    -2.1217458
O           1.8057955    -1.6802189    -2.0368515
C           0.6637976    -2.5361166     0.2924898
H          -0.0707419    -2.1838164     1.0262533
H           0.9927226    -3.5422421     0.5894185
H           0.2098879    -2.5895035    -0.6959662
C           7.3396373    -2.2344625    -0.4874250
H           8.3086371    -2.7089558    -0.3570590
C           6.2119607    -3.0031777    -0.7763930
H           6.2989467    -4.0818401    -0.8768795
C           4.9671737    -2.3929875    -0.9419518
H           4.1023177    -3.0006737    -1.1922896
C           4.8335343    -1.0052387    -0.8118097
C           5.9733969    -0.2366339    -0.5416909
H           5.8752880     0.8396212    -0.4459189
C           7.2152813    -0.8483614    -0.3733566
H           8.0890417    -0.2393043    -0.1563082
29
179_C11H15NO2_5-6-24-25 (-150,) energy =    -633.3929555
N           1.8738647    -1.2784897    -1.1221010
C           2.0353306    -2.4707128    -0.2980525
H           1.0499747    -2.8124185     0.0422472
H           2.6453700    -2.2572142     0.5750981
H           2.4967085    -3.2825616    -0.8776812
C           2.6761751    -0.1699715    -1.0781977
C           3.6780657     0.0043982     0.0941165
O           3.1392538    -0.2590909     1.3810273
C           2.1713122     0.6923644     1.7950005
H           1.8749892     0.4156238     2.8096642
H           1.2845599     0.6835570     1.1459727
H           2.5909414     1.7090612     1.8040381
H           3.9427973     1.0708405     0.0284827
O           2.6448007     0.7057488    -1.9417862
C           0.9741714    -1.4284603    -2.2590184
H          -0.0037195    -1.7807439    -1.9106013
H           1.3688109    -2.1593485    -2.9791236
H           0.8704686    -0.4645031    -2.7548698
C           7.3419118    -2.2384626    -0.4653041
H           8.2681034    -2.7893747    -0.6058311
C           6.6485102    -1.7372743    -1.5686525
H           7.0341304    -1.8928484    -2.5728443
C           5.4586101    -1.0316418    -1.3902400
H           4.9331302    -0.6285025    -2.2514735
C           4.9439254    -0.8231959    -0.1033487
C           5.6508586    -1.3135916     1.0006047
H           5.2594375    -1.1445521     1.9975499
C           6.8399250    -2.0220851     0.8185052
H           7.3755781    -2.4027031     1.6844979
29
179_C11H15NO2_5-6-24-25 (-135,) energy =    -633.3933121
N           1.8772827    -1.3190538    -1.0637002
C           2.0345595    -2.4643151    -0.1752932
H           1.0464229    -2.7906930     0.1719276
H           2.6336929    -2.2004013     0.6912586
H           2.5048981    -3.3048769    -0.7045960
C           2.6817730    -0.2118283    -1.0816890
C           3.6948144     0.0326374     0.0711959
O           3.1780676    -0.1800416     1.3748821
C           2.2017806     0.7747617     1.7590152
H           1.9206065     0.5384256     2.7881198
H           1.3079658     0.7261822     1.1213870
H           2.6075290     1.7963227     1.7197718
H           3.9443603     1.0972770    -0.0489775
O           2.6488031     0.6153792    -1.9924031
C           0.9788699    -1.5305635    -2.1922997
H          -0.0010072    -1.8584776    -1.8260806
H           1.3725156    -2.3030512    -2.8679916
H           0.8797407    -0.5963847    -2.7428754
C           7.3313961    -2.2492799    -0.4996913
H           8.2482346    -2.8138707    -0.6471420
C           6.7633435    -1.5412816    -1.5615470
H           7.2368841    -1.5512555    -2.5397932
C           5.5872798    -0.8169600    -1.3733665
H           5.1478083    -0.2638526    -2.1990669
C           4.9634926    -0.7917721    -0.1177764
C           5.5382813    -1.4965181     0.9446220
H           5.0652844    -1.4671892     1.9197253
C           6.7158556    -2.2228164     0.7515919
H           7.1525392    -2.7668932     1.5852841
29
179_C11H15NO2_5-6-24-25 (-120,) energy =    -633.3926863
N           1.8759536    -1.3685345    -1.0251936
C           1.9979754    -2.4509222    -0.0567409
H           0.9971881    -2.7451812     0.2829894
H           2.5744748    -2.1305075     0.8057256
H           2.4753039    -3.3300645    -0.5120468
C           2.6903774    -0.2713801    -1.1052913
C           3.7077036     0.0476340     0.0294290
O           3.2162011    -0.1147254     1.3490260
C           2.2140806     0.8267165     1.6980407
H           1.9543507     0.6358014     2.7420643
H           1.3141644     0.7169626     1.0766652
H           2.5862077     1.8571324     1.6003350
H           3.9367488     1.1083203    -0.1460137
O           2.6701866     0.4960946    -2.0671982
C           0.9907767    -1.6447628    -2.1507461
H           0.0012409    -1.9339924    -1.7779020
H           1.3835425    -2.4667266    -2.7657323
H           0.9130122    -0.7492766    -2.7651564
C           7.3263427    -2.2563950    -0.5560630
H           8.2352830    -2.8313144    -0.7122445
C           6.8831560    -1.3619748    -1.5336780
H           7.4458403    -1.2382009    -2.4552590
C           5.7190242    -0.6227169    -1.3319758
H           5.3673713     0.0659253    -2.0955734
C           4.9837985    -0.7664236    -0.1467244
C           5.4280727    -1.6651344     0.8278015
H           4.8731919    -1.7655194     1.7539974
C           6.5963522    -2.4035209     0.6231403
H           6.9354097    -3.0937997     1.3914266
29
179_C11H15NO2_5-6-24-25 (-105,) energy =    -633.3911458
N           1.8675290    -1.3868582    -0.9524301
C           1.9380805    -2.3960701     0.0964195
H           0.9197182    -2.6699562     0.3981121
H           2.4634514    -2.0074816     0.9636984
H           2.4420759    -3.3042819    -0.2635395
C           2.7072864    -0.3147096    -1.0963997
C           3.7320618     0.0702427     0.0142965
O           3.2695708    -0.0435101     1.3508250
C           2.2540878     0.8922932     1.6764876
H           2.0197210     0.7463638     2.7337263
H           1.3441760     0.7354301     1.0799931
H           2.6020807     1.9243793     1.5228672
H           3.9412133     1.1246452    -0.2113214
O           2.7106803     0.3859832    -2.1078158
C           0.9979325    -1.7248905    -2.0739016
H          -0.0092685    -1.9498490    -1.7038804
H           1.3757089    -2.6070405    -2.6097159
H           0.9654214    -0.8804135    -2.7601669
C           7.3437015    -2.2333286    -0.6039785
H           8.2476701    -2.8118847    -0.7747716
C           7.0173542    -1.1724207    -1.4517070
H           7.6652119    -0.9220698    -2.2876099
C           5.8601444    -0.4280272    -1.2280010
H           5.5964824     0.3868486    -1.8967448
C           5.0156058    -0.7308876    -0.1512088
C           5.3403354    -1.8025570     0.6874274
H           4.7057947    -2.0317714     1.5363227
C           6.5034245    -2.5431004     0.4657157
H           6.7516350    -3.3641940     1.1334223
29
179_C11H15NO2_5-6-24-25 (-90,) energy =    -633.3890509
N           1.8084994    -1.4082509    -0.9029553
C           1.7930979    -2.3175592     0.2353997
H           0.7539208    -2.4936862     0.5397399
H           2.3329427    -1.8873233     1.0741162
H           2.2356750    -3.2881543    -0.0310989
C           2.7006938    -0.3914713    -1.1254317
C           3.7247383     0.0649948    -0.0401899
O           3.2839497     0.0095140     1.3100235
C           2.2729282     0.9592630     1.6090596
H           2.0552974     0.8618552     2.6754852
H           1.3533436     0.7771344     1.0345893
H           2.6183126     1.9833328     1.4038291
H           3.9106978     1.1104443    -0.3189803
O           2.7507979     0.2119317    -2.1958026
C           0.9461396    -1.8059337    -2.0108317
H          -0.0817446    -1.9322872    -1.6506009
H           1.2813544    -2.7590090    -2.4435136
H           0.9825151    -1.0347934    -2.7782543
C           7.3960739    -2.1568201    -0.6067598
H           8.3152524    -2.7141379    -0.7665763
C           7.1711450    -0.9609809    -1.2903554
H           7.9135774    -0.5822855    -1.9877742
C           5.9928579    -0.2452344    -1.0787433
H           5.8131369     0.6782996    -1.6221640
C           5.0251505    -0.7106881    -0.1795598
C           5.2506596    -1.9195375     0.4907148
H           4.5208190    -2.2876202     1.2030011
C           6.4334819    -2.6311770     0.2857426
H           6.6012414    -3.5600388     0.8248133
29
179_C11H15NO2_5-6-24-25 (-75,) energy =    -633.3874097
N           1.7388856    -1.4511254    -0.8383218
C           1.6610162    -2.2488741     0.3782692
H           0.6234203    -2.2687072     0.7359787
H           2.2900430    -1.8246890     1.1560617
H           1.9649100    -3.2869979     0.1800334
C           2.6757320    -0.4961854    -1.1441562
C           3.7120910     0.0231809    -0.1017111
O           3.3083799     0.0295002     1.2637521
C           2.3155506     1.0033000     1.5479093
H           2.1241499     0.9536857     2.6226403
H           1.3793043     0.8096535     1.0047327
H           2.6671319     2.0136060     1.2909805
H           3.8747038     1.0569921    -0.4333882
O           2.7516022     0.0068095    -2.2630013
C           0.8482371    -1.8915853    -1.9068404
H          -0.1843112    -1.9195994    -1.5382856
H           1.1203927    -2.8994505    -2.2502456
H           0.9300972    -1.1968338    -2.7408006
C           7.4701557    -2.0787255    -0.5634982
H           8.4138549    -2.6026617    -0.6897964
C           7.3195648    -0.7764664    -1.0401307
H           8.1452726    -0.2788568    -1.5416640
C           6.1067669    -0.1069989    -0.8723594
H           5.9920916     0.9049880    -1.2513006
C           5.0292097    -0.7254166    -0.2279951
C           5.1856897    -2.0381323     0.2369645
H           4.3680191    -2.5373097     0.7453136
C           6.3997307    -2.7056684     0.0773423
H           6.5082536    -3.7202060     0.4518616
29
179_C11H15NO2_5-6-24-25 (-60,) energy =    -633.3867336
N           1.7158158    -1.5094718    -0.8098967
C           1.6401208    -2.2196096     0.4603343
H           0.6308569    -2.1194130     0.8818146
H           2.3566289    -1.8168592     1.1710455
H           1.8304944    -3.2919255     0.3089864
C           2.6527447    -0.5808722    -1.1905758
C           3.7150630    -0.0186913    -0.2018958
O           3.3492825     0.0555971     1.1744841
C           2.3724069     1.0506149     1.4398925
H           2.2110054     1.0530138     2.5207021
H           1.4194489     0.8406537     0.9328704
H           2.7238592     2.0447935     1.1258473
H           3.8669637     0.9993446    -0.5841976
O           2.7027727    -0.1381821    -2.3359017
C           0.7733412    -1.9773499    -1.8201493
H          -0.2482527    -1.9336232    -1.4227615
H           0.9898813    -3.0173231    -2.1011853
H           0.8599650    -1.3433041    -2.7007416
C           7.5277408    -2.0510002    -0.5081904
H           8.4887752    -2.5526708    -0.5838471
C           7.4295428    -0.6808413    -0.7515521
H           8.3137896    -0.1084413    -1.0187646
C           6.1933189    -0.0415151    -0.6537337
H           6.1210850     1.0257285    -0.8469728
C           5.0393094    -0.7570259    -0.3142197
C           5.1479621    -2.1336952    -0.0777152
H           4.2684323    -2.7126281     0.1834013
C           6.3829594    -2.7751063    -0.1702114
H           6.4499429    -3.8434273     0.0180536
29
179_C11H15NO2_5-6-24-25 (-45,) energy =    -633.3868843
N           1.7066094    -1.5461215    -0.7511469
C           1.7073669    -2.2093869     0.5471154
H           0.7325540    -2.0742460     1.0351666
H           2.4792032    -1.7978819     1.1916779
H           1.8680042    -3.2894219     0.4205920
C           2.6042073    -0.6119263    -1.2066494
C           3.6996040    -0.0144946    -0.2810523
O           3.3672170     0.1393423     1.0986098
C           2.3943091     1.1463347     1.3306003
H           2.2637492     1.2142032     2.4134800
H           1.4279533     0.9033800     0.8653819
H           2.7315867     2.1206030     0.9461212
H           3.8484980     0.9821836    -0.7183547
O           2.5851745    -0.1979117    -2.3634609
C           0.7024543    -2.0412909    -1.6855630
H          -0.2939141    -1.9751685    -1.2309179
H           0.8949814    -3.0923182    -1.9412715
H           0.7407254    -1.4392145    -2.5918084
C           7.5231743    -2.0412772    -0.4417115
H           8.4891179    -2.5383124    -0.4715381
C           7.4504439    -0.6472135    -0.4508915
H           8.3594042    -0.0527840    -0.4886275
C           6.2087410    -0.0141760    -0.4170246
H           6.1558311     1.0717404    -0.4255209
C           5.0228161    -0.7580271    -0.3732982
C           5.1075113    -2.1553837    -0.3649360
H           4.2032297    -2.7548486    -0.3469190
C           6.3484077    -2.7929929    -0.4001649
H           6.3957807    -3.8787600    -0.3983621
29
179_C11H15NO2_5-6-24-25 (-30,) energy =    -633.3876284
N           1.7199566    -1.5712074    -0.7143238
C           1.8313788    -2.2195171     0.5870311
H           0.8904078    -2.1047984     1.1417289
H           2.6341360    -1.7796416     1.1720834
H           2.0151268    -3.2956100     0.4600412
C           2.5660242    -0.6236556    -1.2356761
C           3.6895223     0.0036747    -0.3684097
O           3.3742311     0.2401373     1.0035776
C           2.3953408     1.2513695     1.1880619
H           2.2834229     1.3862497     2.2667024
H           1.4237056     0.9699221     0.7572928
H           2.7155323     2.2021574     0.7359845
H           3.8450610     0.9734433    -0.8619431
O           2.4691163    -0.2243079    -2.3934546
C           0.6682256    -2.1003817    -1.5743343
H          -0.2966661    -2.0545981    -1.0541075
H           0.8689059    -3.1486927    -1.8349415
H           0.6301373    -1.5058650    -2.4856938
C           7.4931256    -2.0658168    -0.4073756
H           8.4550332    -2.5714957    -0.4053166
C           7.4242783    -0.6869098    -0.1937350
H           8.3325313    -0.1146090    -0.0246488
C           6.1896907    -0.0416362    -0.2032910
H           6.1378003     1.0312326    -0.0350624
C           5.0054700    -0.7580037    -0.4245980
C           5.0850069    -2.1388639    -0.6329250
H           4.1838153    -2.7132209    -0.8226630
C           6.3214108    -2.7884928    -0.6290169
H           6.3659501    -3.8606362    -0.8010754
29
179_C11H15NO2_5-6-24-25 (-15,) energy =    -633.3887173
N           1.7461133    -1.6028923    -0.6605799
C           1.9700205    -2.2428559     0.6302329
H           1.0529222    -2.1913250     1.2318004
H           2.7681441    -1.7475267     1.1758660
H           2.2228588    -3.3033934     0.4922392
C           2.5341596    -0.6386630    -1.2375207
C           3.6830483     0.0148411    -0.4268372
O           3.3772291     0.3347989     0.9302102
C           2.4030233     1.3590330     1.0609508
H           2.3022594     1.5600463     2.1303642
H           1.4265842     1.0539764     0.6585380
H           2.7207580     2.2789843     0.5476316
H           3.8475573     0.9535311    -0.9760886
O           2.3596376    -0.2488451    -2.3894841
C           0.6606462    -2.1704196    -1.4506263
H          -0.2692938    -2.1581367    -0.8687782
H           0.8802064    -3.2114554    -1.7254314
H           0.5423460    -1.5789827    -2.3572491
C           7.4512636    -2.1202138    -0.3745083
H           8.4045247    -2.6415445    -0.3523021
C           7.3670287    -0.7911211     0.0494650
H           8.2549935    -0.2744363     0.4040298
C           6.1449649    -0.1242362     0.0149757
H           6.0787011     0.9067051     0.3522754
C           4.9872746    -0.7700057    -0.4424313
C           5.0796899    -2.1024603    -0.8559919
H           4.1991025    -2.6207460    -1.2229618
C           6.3058757    -2.7719682    -0.8284106
H           6.3614214    -3.8048429    -1.1617693
29
179_C11H15NO2_5-6-24-25 (0,) energy =    -633.3899823
N           1.7838245    -1.6151648    -0.6022301
C           2.1032955    -2.2489007     0.6715720
H           1.2005924    -2.2897624     1.2943443
H           2.8636571    -1.6847271     1.2045415
H           2.4538899    -3.2786632     0.5145055
C           2.5312320    -0.6505750    -1.2283782
C           3.6980686     0.0285082    -0.4666183
O           3.4018593     0.4165736     0.8731396
C           2.4394425     1.4567249     0.9590702
H           2.3452474     1.7082163     2.0183317
H           1.4585528     1.1427563     0.5753650
H           2.7648586     2.3478769     0.4019483
H           3.8675773     0.9379126    -1.0631319
O           2.3066692    -0.2843044    -2.3796132
C           0.6913527    -2.2311052    -1.3443624
H          -0.2097209    -2.2633321    -0.7199829
H           0.9453861    -3.2603305    -1.6348161
H           0.5037741    -1.6441342    -2.2422430
C           7.4212534    -2.1855354    -0.3760737
H           8.3625902    -2.7277701    -0.3472490
C           7.3051308    -0.9456986     0.2579158
H           8.1558865    -0.5201137     0.7837051
C           6.0987686    -0.2501601     0.2188211
H           6.0047694     0.7065572     0.7237198
C           4.9892743    -0.7794607    -0.4557963
C           5.1112524    -2.0256462    -1.0790235
H           4.2676533    -2.4505940    -1.6148711
C           6.3221766    -2.7218183    -1.0452222
H           6.4013761    -3.6856107    -1.5411424
29
179_C11H15NO2_5-6-24-25 (15,) energy =    -633.3914724
N           1.7339403    -1.5679471    -0.4663325
C           2.1215305    -2.1557109     0.8108804
H           1.2403659    -2.2247073     1.4608506
H           2.8683025    -1.5426125     1.3077757
H           2.5185631    -3.1702971     0.6658192
C           2.4495812    -0.6258244    -1.1576562
C           3.6225128     0.1057461    -0.4557529
O           3.3424888     0.5628397     0.8623377
C           2.3830229     1.6081267     0.9054187
H           2.2971217     1.9101505     1.9520288
H           1.3992149     1.2771440     0.5445284
H           2.7061639     2.4705673     0.3038309
H           3.7783601     0.9807778    -1.1058684
O           2.1990358    -0.3277873    -2.3236997
C           0.6522386    -2.2537376    -1.1616864
H          -0.2196220    -2.3311645    -0.5015581
H           0.9539559    -3.2693519    -1.4553686
H           0.3958800    -1.6886333    -2.0566174
C           7.3131979    -2.1648807    -0.3556740
H           8.2429185    -2.7269017    -0.3273105
C           7.1408531    -1.0475052     0.4639610
H           7.9373115    -0.7364567     1.1351000
C           5.9476141    -0.3267631     0.4286477
H           5.8071488     0.5319038     1.0767432
C           4.9095406    -0.7113628    -0.4302872
C           5.0860516    -1.8364481    -1.2447215
H           4.2994666    -2.1391453    -1.9298867
C           6.2826890    -2.5550257    -1.2110058
H           6.4055529    -3.4227275    -1.8538017
29
179_C11H15NO2_5-6-24-25 (30,) energy =    -633.3927915
N           1.7581584    -1.5889686    -0.4123365
C           2.1654006    -2.1111082     0.8869107
H           1.2909926    -2.1638034     1.5474028
H           2.9063609    -1.4646412     1.3485303
H           2.5771393    -3.1249262     0.7841912
C           2.4550118    -0.6724049    -1.1532438
C           3.6288179     0.1047685    -0.5008480
O           3.3524778     0.6264959     0.7909315
C           2.3919415     1.6710907     0.7856080
H           2.3070182     2.0228178     1.8166321
H           1.4082906     1.3214124     0.4423713
H           2.7131804     2.5041399     0.1431859
H           3.7790318     0.9427900    -1.1988214
O           2.1942379    -0.4362055    -2.3320309
C           0.6855965    -2.3269629    -1.0675356
H          -0.1819967    -2.3862323    -0.3999682
H           1.0046450    -3.3502614    -1.3116082
H           0.4157447    -1.8116915    -1.9881320
C           7.2941359    -2.2043599    -0.3750482
H           8.2161922    -2.7788705    -0.3461274
C           7.0354618    -1.2397789     0.5996421
H           7.7569405    -1.0595146     1.3925247
C           5.8514860    -0.5012018     0.5647615
H           5.6459409     0.2437480     1.3253706
C           4.9103892    -0.7210819    -0.4479542
C           5.1742542    -1.6910767    -1.4244886
H           4.4597867    -1.8582132    -2.2256258
C           6.3598672    -2.4253895    -1.3884539
H           6.5515893    -3.1723443    -2.1543617
29
179_C11H15NO2_5-6-24-25 (45,) energy =    -633.3933238
N           1.7509942    -1.6031944    -0.3549429
C           2.1527043    -2.0426752     0.9757837
H           1.2727762    -2.0668654     1.6306504
H           2.8814672    -1.3606823     1.4038664
H           2.5770510    -3.0557446     0.9373669
C           2.4415215    -0.7246852    -1.1450774
C           3.6171075     0.0980655    -0.5479975
O           3.3556408     0.6803504     0.7180664
C           2.3832442     1.7125947     0.6765434
H           2.3072108     2.1118795     1.6907736
H           1.3995353     1.3362021     0.3628687
H           2.6871736     2.5177781    -0.0083052
H           3.7538620     0.8971802    -1.2917678
O           2.1786479    -0.5576353    -2.3357534
C           0.6852652    -2.3853478    -0.9694561
H          -0.1835969    -2.4123741    -0.3014326
H           1.0127625    -3.4182882    -1.1537441
H           0.4141238    -1.9255764    -1.9185560
C           7.2791519    -2.2111569    -0.4153502
H           8.2013443    -2.7856287    -0.3902598
C           6.9086097    -1.4297180     0.6788933
H           7.5423969    -1.3914281     1.5612811
C           5.7247917    -0.6886868     0.6493767
H           5.4400465    -0.0738452     1.4957085
C           4.8970908    -0.7282099    -0.4772541
C           5.2755396    -1.5104683    -1.5777470
H           4.6413687    -1.5356381    -2.4597862
C           6.4587361    -2.2468253    -1.5454301
H           6.7402949    -2.8484488    -2.4057283
29
179_C11H15NO2_5-6-24-25 (60,) energy =    -633.3927359
N           1.7668077    -1.6396189    -0.2661712
C           2.1613016    -1.9982179     1.0906209
H           1.2694144    -2.0260276     1.7285936
H           2.8518769    -1.2643776     1.4954256
H           2.6272947    -2.9934574     1.1128049
C           2.4666797    -0.8189385    -1.1094023
C           3.6525657     0.0370512    -0.5769336
O           3.4268185     0.6758677     0.6682845
C           2.4426303     1.6958877     0.6093023
H           2.3971556     2.1456630     1.6040652
H           1.4526762     1.2957990     0.3488496
H           2.7149785     2.4682828    -0.1248621
H           3.7709717     0.7982716    -1.3609085
O           2.2076171    -0.7292386    -2.3091666
C           0.7096176    -2.4646253    -0.8392799
H          -0.1688616    -2.4447931    -0.1837369
H           1.0401352    -3.5075953    -0.9447649
H           0.4527097    -2.0737534    -1.8224676
C           7.3067829    -2.2817526    -0.4620967
H           8.2279262    -2.8582052    -0.4449227
C           6.8186050    -1.7029445     0.7090798
H           7.3605155    -1.8235602     1.6436926
C           5.6365219    -0.9583866     0.6897379
H           5.2719493    -0.4881503     1.5961931
C           4.9282597    -0.7933955    -0.5043026
C           5.4295691    -1.3648985    -1.6824624
H           4.8828260    -1.2318327    -2.6122546
C           6.6083590    -2.1079850    -1.6596843
H           6.9849099    -2.5471324    -2.5797909
29
179_C11H15NO2_5-6-24-25 (75,) energy =    -633.3910663
N           1.7514618    -1.6590394    -0.2140986
C           2.1070120    -1.9021956     1.1779258
H           1.1928606    -1.9108450     1.7840939
H           2.7585053    -1.1157110     1.5472418
H           2.6017516    -2.8768784     1.2947498
C           2.4625290    -0.8987172    -1.1043510
C           3.6536292    -0.0064994    -0.6390684
O           3.4614744     0.6901934     0.5820433
C           2.4631431     1.6953444     0.5046915
H           2.4443789     2.1945080     1.4765285
H           1.4698816     1.2728522     0.2966664
H           2.7025239     2.4327863    -0.2755345
H           3.7461950     0.7150914    -1.4616459
O           2.2137144    -0.8936673    -2.3092627
C           0.7111411    -2.5328895    -0.7452445
H          -0.1840584    -2.4644620    -0.1160447
H           1.0475850    -3.5791945    -0.7571413
H           0.4785165    -2.2236700    -1.7628316
C           7.3303794    -2.2887034    -0.5158811
H           8.2574246    -2.8555330    -0.4969592
C           6.7062061    -1.9221773     0.6766890
H           7.1497575    -2.1979061     1.6300179
C           5.5161575    -1.1914989     0.6561334
H           5.0565885    -0.8787902     1.5870431
C           4.9341360    -0.8259426    -0.5622638
C           5.5784935    -1.1755380    -1.7567456
H           5.1328703    -0.8843129    -2.7042148
C           6.7629857    -1.9101353    -1.7346490
H           7.2478888    -2.1781096    -2.6696115
29
179_C11H15NO2_5-6-24-25 (90,) energy =    -633.3889140
N           1.7032861    -1.6440109    -0.1366004
C           1.9856556    -1.7476694     1.2890058
H           1.0448593    -1.6690548     1.8477335
H           2.6459563    -0.9452879     1.6058231
H           2.4408620    -2.7190919     1.5302962
C           2.4557441    -0.9818234    -1.0720733
C           3.6398775    -0.0479827    -0.6724629
O           3.4806953     0.6985958     0.5264953
C           2.4836144     1.7039548     0.4316475
H           2.4894386     2.2429943     1.3821730
H           1.4838644     1.2784614     0.2636262
H           2.7073627     2.4080966    -0.3833529
H           3.6924071     0.6405372    -1.5256414
O           2.2467318    -1.0951828    -2.2786059
C           0.6690364    -2.5525778    -0.6201567
H          -0.2529160    -2.3998369    -0.0466526
H           0.9819128    -3.5994332    -0.5009478
H           0.4919166    -2.3527687    -1.6754669
C           7.3808527    -2.2265398    -0.5607968
H           8.3235708    -2.7668442    -0.5411432
C           6.6158514    -2.1069933     0.6004542
H           6.9642526    -2.5496178     1.5300795
C           5.4052308    -1.4130782     0.5792741
H           4.8361509    -1.3026816     1.4953540
C           4.9415607    -0.8326201    -0.6078000
C           5.7268150    -0.9367108    -1.7627878
H           5.3782530    -0.4811027    -2.6856538
C           6.9327342    -1.6372713    -1.7439285
H           7.5261214    -1.7128569    -2.6512301
29
179_C11H15NO2_5-6-24-25 (105,) energy =    -633.3873761
N           1.6933942    -1.6651430    -0.0660266
C           1.9109230    -1.6174311     1.3735299
H           0.9665731    -1.3748742     1.8782139
H           2.6456635    -0.8577744     1.6257700
H           2.2456564    -2.5962711     1.7462828
C           2.4650838    -1.0866227    -1.0420175
C           3.6449390    -0.1220094    -0.7133557
O           3.5180264     0.6801075     0.4565195
C           2.5271766     1.6892347     0.3359127
H           2.5536644     2.2687199     1.2620045
H           1.5207356     1.2666283     0.2028307
H           2.7421038     2.3558280    -0.5124605
H           3.6611943     0.5297800    -1.5964137
O           2.2737120    -1.3026025    -2.2369105
C           0.6469253    -2.5897871    -0.4884412
H          -0.2904762    -2.3484418     0.0274117
H           0.9204343    -3.6251605    -0.2418381
H           0.5151511    -2.5018910    -1.5653766
C           7.4410066    -2.2041191    -0.6060871
H           8.3970000    -2.7204816    -0.5848985
C           6.5518091    -2.3290056     0.4631063
H           6.8149480    -2.9412567     1.3217491
C           5.3232660    -1.6693841     0.4372818
H           4.6508697    -1.7664813     1.2824904
C           4.9660470    -0.8724026    -0.6585349
C           5.8701469    -0.7427354    -1.7190859
H           5.6062068    -0.1240075    -2.5726116
C           7.0964173    -1.4082010    -1.6986096
H           7.7830952    -1.2988660    -2.5337519
29
179_C11H15NO2_5-6-24-25 (120,) energy =    -633.3867454
N           1.6974424    -1.7174229    -0.0518064
C           1.9039784    -1.5653144     1.3824826
H           0.9818017    -1.1996947     1.8542893
H           2.7033735    -0.8577524     1.5848551
H           2.1450809    -2.5370628     1.8366564
C           2.4574559    -1.1890814    -1.0655869
C           3.6340622    -0.2061126    -0.7972102
O           3.5237385     0.6479621     0.3395655
C           2.5328238     1.6528992     0.1885197
H           2.5739910     2.2735398     1.0870392
H           1.5234909     1.2275709     0.0895144
H           2.7354399     2.2801895    -0.6923547
H           3.6291175     0.4099712    -1.7060059
O           2.2548466    -1.4682658    -2.2452524
C           0.6285027    -2.6417771    -0.4129001
H          -0.3084713    -2.3337684     0.0678383
H           0.8687302    -3.6604106    -0.0785401
H           0.5123330    -2.6369721    -1.4952243
C           7.4834028    -2.1853421    -0.6444351
H           8.4538143    -2.6732495    -0.6094502
C           6.4886602    -2.5354225     0.2705006
H           6.6824539    -3.2972272     1.0210618
C           5.2411552    -1.9136157     0.2241226
H           4.4797040    -2.1993504     0.9420313
C           4.9702700    -0.9284810    -0.7346598