29
179_C11H15NO2_0-5-6-24 (-165,) energy =    -633.3893672
N           1.2857388    -1.8084790    -0.1603395
C           0.5267029    -0.5673378    -0.1612767
H           0.1337294    -0.3323010    -1.1613370
H           1.1351169     0.2574086     0.2030034
H          -0.3272086    -0.6702750     0.5192317
C           2.6532575    -1.9069188    -0.1302897
C           3.4499028    -0.5729886    -0.1637579
O           3.2455009     0.0289588     1.1173788
C           3.7590418     1.3489969     1.2181734
H           3.5061710     1.7039937     2.2203339
H           3.2982482     2.0163938     0.4722369
H           4.8478525     1.3754240     1.0868081
H           3.0200350     0.0788399    -0.9432391
O           3.2346399    -2.9852363    -0.0978777
C           0.4960967    -3.0313630    -0.2066737
H          -0.1497574    -3.0348377    -1.0948094
H          -0.1410682    -3.1127539     0.6838402
H           1.1760491    -3.8809298    -0.2452304
C           7.6241428    -1.1800517    -1.0924073
H           8.6756074    -1.3297676    -1.3235089
C           7.1061482    -1.6152818     0.1312619
H           7.7545052    -2.1076941     0.8513076
C           5.7584285    -1.4285422     0.4291485
H           5.3503896    -1.7721479     1.3737290
C           4.9118950    -0.7963027    -0.4914060
C           5.4382504    -0.3572693    -1.7091753
H           4.7891007     0.1395902    -2.4277656
C           6.7875097    -0.5520700    -2.0143581
H           7.1827122    -0.2073564    -2.9663136
29
179_C11H15NO2_0-5-6-24 (-150,) energy =    -633.3885941
N           1.3194886    -1.8077744    -0.2194458
C           0.5540855    -0.5710649    -0.3073121
H           0.3389965    -0.2907531    -1.3483498
H           1.0767608     0.2428161     0.1939694
H          -0.4030863    -0.7090674     0.2087943
C           2.6602453    -1.8766700     0.0612832
C           3.4520102    -0.5435289    -0.0231280
O           3.2903751     0.0629847     1.2601090
C           3.8062551     1.3833417     1.3369866
H           3.5838758     1.7447230     2.3440824
H           3.3234581     2.0465925     0.6013969
H           4.8908104     1.4089099     1.1727768
H           2.9949797     0.1040265    -0.7885011
O           3.2260877    -2.9317772     0.3202177
C           0.5494195    -3.0435771    -0.2609519
H          -0.0832420    -3.0576496    -1.1569194
H          -0.0969961    -3.1373939     0.6225306
H           1.2420698    -3.8836528    -0.2839257
C           7.5664696    -1.1860965    -1.1693570
H           8.6021826    -1.3468893    -1.4572376
C           7.1200025    -1.5847563     0.0940870
H           7.8081121    -2.0597038     0.7885395
C           5.7923339    -1.3838357     0.4655771
H           5.4372862    -1.7006073     1.4399846
C           4.8956059    -0.7728893    -0.4216113
C           5.3511623    -0.3694964    -1.6801790
H           4.6628709     0.1116565    -2.3726425
C           6.6792988    -0.5793036    -2.0580883
H           7.0194427    -0.2624889    -3.0405359
29
179_C11H15NO2_0-5-6-24 (-135,) energy =    -633.3870716
N           1.3653401    -1.7233007    -0.3091885
C           0.5931727    -0.5106627    -0.5579114
H           0.5482714    -0.2568132    -1.6261722
H           0.9999934     0.3336612    -0.0003886
H          -0.4323140    -0.6661240    -0.2046089
C           2.6403347    -1.7385785     0.1992844
C           3.4555960    -0.4247436     0.0847257
O           3.3767580     0.1649229     1.3802674
C           3.9198768     1.4737341     1.4437806
H           3.7588352     1.8269854     2.4653541
H           3.4112316     2.1557005     0.7433438
H           4.9948409     1.4830272     1.2219927
H           2.9890101     0.2489187    -0.6493419
O           3.1491373    -2.7493391     0.6672178
C           0.6202873    -2.9758359    -0.3418948
H           0.0533250    -3.0404215    -1.2777681
H          -0.0834196    -3.0464312     0.4992757
H           1.3254459    -3.8033665    -0.2775834
C           7.4794993    -1.2035016    -1.2860982
H           8.4918020    -1.3991076    -1.6302407
C           7.0937738    -1.5750404     0.0052347
H           7.8062346    -2.0633484     0.6650449
C           5.7963789    -1.3288212     0.4503811
H           5.4852556    -1.6252819     1.4456313
C           4.8699576    -0.6991720    -0.3922883
C           5.2649938    -0.3229694    -1.6797558
H           4.5530817     0.1736631    -2.3365422
C           6.5620585    -0.5780709    -2.1303883
H           6.8552335    -0.2816042    -3.1341394
29
179_C11H15NO2_0-5-6-24 (-120,) energy =    -633.3859881
N           1.4241214    -1.7548232    -0.2432717
C           0.7075193    -0.6760953    -0.9091347
H           0.8283511    -0.7137926    -2.0012932
H           1.0249466     0.3023645    -0.5509893
H          -0.3615097    -0.7711133    -0.6857887
C           2.6195401    -1.6581252     0.4275627
C           3.4471385    -0.3570061     0.2893365
O           3.5037345     0.1706997     1.6099840
C           4.0689963     1.4677929     1.6755774
H           4.0243468     1.7724778     2.7241765
H           3.4978669     2.1897813     1.0689069
H           5.1145536     1.4801325     1.3397583
H           2.9589542     0.3713232    -0.3714675
O           3.0679214    -2.5816269     1.0958483
C           0.7328716    -3.0392934    -0.2331582
H           0.4550615    -3.3211714    -1.2564933
H          -0.1812811    -2.9875677     0.3734767
H           1.3993312    -3.7887003     0.1903020
C           7.3285684    -1.2418359    -1.4011847
H           8.3046475    -1.4652807    -1.8239471
C           7.0224268    -1.6400001    -0.0965870
H           7.7598778    -2.1765123     0.4948589
C           5.7721481    -1.3577182     0.4508198
H           5.5184328    -1.6758401     1.4555427
C           4.8139386    -0.6661253    -0.3031135
C           5.1292673    -0.2637616    -1.6048617
H           4.3938556     0.2828202    -2.1926183
C           6.3788673    -0.5540326    -2.1568577
H           6.6108169    -0.2362512    -3.1700918
29
179_C11H15NO2_0-5-6-24 (-105,) energy =    -633.3875598
N           1.6648511    -1.6633251    -0.1971045
C           1.9219503    -2.2511479    -1.5055617
H           1.6181348    -3.3037460    -1.4860868
H           2.9833802    -2.2286239    -1.7523109
H           1.3558114    -1.7503615    -2.3039223
C           2.4911182    -0.7782538     0.4497169
C           3.6513977    -0.1234334    -0.3588494
O           3.7300751     1.2548347    -0.0350235
C           2.5906498     2.0095057    -0.4063674
H           2.8305069     3.0546662    -0.1956232
H           1.7036854     1.7237914     0.1741302
H           2.3690777     1.9057276    -1.4815052
H           3.4796011    -0.2269878    -1.4395247
O           2.2975458    -0.4289102     1.6095800
C           0.4938880    -2.1707095     0.5076323
H           0.6085475    -3.2369746     0.7447123
H          -0.4007642    -2.0483056    -0.1157038
H           0.3786369    -1.6090893     1.4333779
C           7.4525599    -1.8753856     0.7116733
H           8.4096898    -2.3125336     0.9839499
C           6.6585975    -1.2629155     1.6857461
H           6.9981045    -1.2240963     2.7175286
C           5.4298098    -0.7019148     1.3432145
H           4.8022152    -0.2324600     2.0928558
C           4.9840567    -0.7438383     0.0148835
C           5.7857657    -1.3514987    -0.9568098
H           5.4570124    -1.3684337    -1.9941990
C           7.0143961    -1.9191340    -0.6116851
H           7.6289470    -2.3861663    -1.3768526
29
179_C11H15NO2_0-5-6-24 (-90,) energy =    -633.3891181
N           1.7509362    -1.6929421    -0.1177411
C           2.1161099    -2.3648608    -1.3564733
H           1.9501943    -3.4417028    -1.2378677
H           3.1712047    -2.2262839    -1.5892576
H           1.5092941    -2.0210559    -2.2068360
C           2.4263962    -0.6386185     0.4432319
C           3.6111691    -0.0179583    -0.3553851
O           3.7647831     1.3459963    -0.0182710
C           2.6869661     2.1732138    -0.4215171
H           2.9821277     3.1992806    -0.1882685
H           1.7645905     1.9333048     0.1211064
H           2.5037664     2.0944857    -1.5061266
H           3.4235312    -0.1046386    -1.4368185
O           2.1131220    -0.1599573     1.5288881
C           0.5815736    -2.2239849     0.5707997
H           0.7563739    -3.2593724     0.8918723
H          -0.2901287    -2.2109343    -0.0963414
H           0.3854161    -1.6037199     1.4440501
C           7.3393088    -1.9520032     0.6655744
H           8.2784665    -2.4324679     0.9269894
C           6.5170747    -1.4282493     1.6673154
H           6.8169691    -1.5000368     2.7094944
C           5.3106136    -0.8136211     1.3371524
H           4.6647066    -0.4059244     2.1083555
C           4.9151372    -0.7128084    -0.0037160
C           5.7466197    -1.2303288    -1.0022737
H           5.4577899    -1.1342970    -2.0471360
C           6.9528135    -1.8517739    -0.6709604
H           7.5905537    -2.2488751    -1.4563398
29
179_C11H15NO2_0-5-6-24 (-75,) energy =    -633.3892656
N           1.8174446    -1.7430352    -0.0689663
C           2.2510629    -2.4720745    -1.2501463
H           2.2731759    -3.5446715    -1.0230561
H           3.2562753    -2.1845556    -1.5513447
H           1.5629771    -2.3196635    -2.0949187
C           2.3382038    -0.5528953     0.3757923
C           3.5648548     0.0438959    -0.3792474
O           3.7697261     1.3890884    -0.0089512
C           2.7763699     2.2859237    -0.4793688
H           3.1108297     3.2881921    -0.2001746
H           1.8015285     2.0894721    -0.0196062
H           2.6819752     2.2362980    -1.5769984
H           3.3849713    -0.0120164    -1.4659396
O           1.8915729     0.0292305     1.3591416
C           0.6474229    -2.2900235     0.6057338
H           0.8537523    -3.3087455     0.9578935
H          -0.2111896    -2.3283325    -0.0786306
H           0.4078994    -1.6502776     1.4536035
C           7.2216160    -2.0377898     0.6149572
H           8.1438470    -2.5529796     0.8702690
C           6.3575180    -1.6046773     1.6243095
H           6.6081993    -1.7798967     2.6671875
C           5.1726483    -0.9463528     1.2991888
H           4.4996201    -0.6019635     2.0790811
C           4.8389598    -0.7127508    -0.0414271
C           5.7140286    -1.1378677    -1.0462467
H           5.4734825    -0.9389757    -2.0887897
C           6.8987948    -1.8022208    -0.7217524
H           7.5698987    -2.1281858    -1.5120299
29
179_C11H15NO2_0-5-6-24 (-60,) energy =    -633.3876860
N           1.8837343    -1.7571008    -0.0001665
C           2.3753049    -2.5483546    -1.1168675
H           2.5769555    -3.5733819    -0.7821971
H           3.3028023    -2.1456431    -1.5163505
H           1.6293353    -2.5957964    -1.9242240
C           2.2644394    -0.4708530     0.3021510
C           3.5426709     0.1093732    -0.3827840
O           3.7768088     1.4321689     0.0431186
C           2.8893686     2.3964144    -0.5027820
H           3.2460258     3.3702323    -0.1577791
H           1.8617941     2.2433990    -0.1579751
H           2.9154107     2.3793707    -1.6051001
H           3.3838910     0.0996130    -1.4759574
O           1.6734625     0.1982678     1.1427635
C           0.7043174    -2.3018578     0.6606104
H           0.9176715    -3.3160644     1.0193071
H          -0.1487973    -2.3521414    -0.0310358
H           0.4458352    -1.6575083     1.4992149
C           7.1479679    -2.0867880     0.5555354
H           8.0583220    -2.6290834     0.7968162
C           6.2491875    -1.7398382     1.5675125
H           6.4609474    -2.0080780     2.5991683
C           5.0791651    -1.0475927     1.2584876
H           4.3829875    -0.7680744     2.0446462
C           4.7932481    -0.6943831    -0.0664200
C           5.7048993    -1.0323428    -1.0720811
H           5.5016845    -0.7426612    -2.1011696
C           6.8747183    -1.7302800    -0.7655590
H           7.5729196    -1.9891264    -1.5571762
29
179_C11H15NO2_0-5-6-24 (-45,) energy =    -633.3850296
N           1.8798668    -1.7655326     0.0850077
C           2.4507234    -2.6462585    -0.9238883
H           2.7829471    -3.5845535    -0.4629055
H           3.3102218    -2.1924436    -1.4107306
H           1.6999830    -2.8886439    -1.6905133
C           2.1462990    -0.4212802     0.2136204
C           3.4742752     0.1546244    -0.3803784
O           3.7099107     1.4523301     0.1200343
C           2.9441946     2.4814718    -0.4912617
H           3.3086882     3.4222291    -0.0705224
H           1.8771366     2.3742303    -0.2771604
H           3.1039468     2.4960432    -1.5821701
H           3.3462688     0.2029654    -1.4776464
O           1.4080517     0.3171259     0.8559545
C           0.6700921    -2.2785678     0.7175334
H           0.8619315    -3.2914800     1.0891395
H          -0.1691377    -2.3215535     0.0080865
H           0.3958087    -1.6234274     1.5428003
C           7.0820112    -2.0734132     0.4785192
H           7.9949615    -2.6205142     0.6981192
C           6.1532724    -1.8217566     1.4912801
H           6.3446544    -2.1688751     2.5032319
C           4.9797789    -1.1232327     1.2091236
H           4.2625525    -0.9215800     2.0000092
C           4.7180848    -0.6690769    -0.0896616
C           5.6609368    -0.9119110    -1.0947164
H           5.4769144    -0.5454427    -2.1026052
C           6.8341675    -1.6153642    -0.8161038
H           7.5548231    -1.7998518    -1.6084236
29
179_C11H15NO2_0-5-6-24 (-30,) energy =    -633.3820498
N           1.9173458    -1.8276236     0.1224436
C           2.5673768    -2.7974300    -0.7512742
H           2.9297461    -3.6537945    -0.1699316
H           3.4162354    -2.3600877    -1.2702373
H           1.8533224    -3.1675454    -1.5014911
C           2.1115837    -0.4642944     0.0795120
C           3.4839739     0.1295249    -0.3889486
O           3.6924031     1.3809850     0.2369866
C           3.0529052     2.4898875    -0.3813888
H           3.4138405     3.3786142     0.1434304
H           1.9650187     2.4279991    -0.2972279
H           3.3389600     2.5663830    -1.4433466
H           3.4025286     0.2746949    -1.4815048
O           1.2540356     0.3068487     0.4959118
C           0.6567403    -2.2934434     0.6927827
H           0.8086768    -3.2950561     1.1088831
H          -0.1390781    -2.3452243    -0.0643047
H           0.3406572    -1.6078217     1.4776860
C           7.0932214    -2.1198257     0.4033983
H           8.0068649    -2.6718873     0.6069876
C           6.1677020    -1.8930831     1.4253497
H           6.3624889    -2.2647224     2.4279541
C           4.9933521    -1.1881887     1.1648424
H           4.2781163    -1.0089470     1.9624775
C           4.7258823    -0.7025931    -0.1220365
C           5.6662007    -0.9200392    -1.1353743
H           5.4789393    -0.5299606    -2.1337163
C           6.8407768    -1.6300655    -0.8783886
H           7.5588292    -1.7940655    -1.6775645
29
179_C11H15NO2_0-5-6-24 (-15,) energy =    -633.3795644
N           1.9275115    -1.8644125     0.0917256
C           2.6751450    -2.9283029    -0.5718470
H           3.0060199    -3.6784141     0.1563348
H           3.5515429    -2.5409508    -1.0831420
H           2.0333697    -3.4264501    -1.3129715
C           2.0951694    -0.5130060    -0.1182906
C           3.4989337     0.1119973    -0.4326876
O           3.6398125     1.2921759     0.3445392
C           3.0919656     2.4782531    -0.2164273
H           3.4296233     3.2982601     0.4237023
H           2.0000807     2.4475626    -0.2389428
H           3.4769792     2.6444020    -1.2356617
H           3.4750248     0.3754087    -1.5037699
O           1.1594769     0.2644608     0.0432302
C           0.6106267    -2.2831617     0.5663397
H           0.7183421    -3.2351597     1.0965366
H          -0.0979012    -2.4202838    -0.2630713
H           0.2086951    -1.5263485     1.2385900
C           7.1114419    -2.1396035     0.3317078
H           8.0245206    -2.6951931     0.5280868
C           6.2106983    -1.8789086     1.3684693
H           6.4252904    -2.2283510     2.3750435
C           5.0380691    -1.1687293     1.1179368
H           4.3427138    -0.9599243     1.9255718
C           4.7460688    -0.7116946    -0.1749004
C           5.6616928    -0.9611936    -1.2030114
H           5.4561874    -0.5932496    -2.2061372
C           6.8354568    -1.6769818    -0.9548482
H           7.5350122    -1.8648059    -1.7651203
29
179_C11H15NO2_0-5-6-24 (0,) energy =    -633.3804213
N           1.9036515    -1.8779962    -0.3919983
C           2.6404251    -2.8016325     0.4700818
H           1.9771443    -3.1669510     1.2666237
H           3.4934926    -2.3161175     0.9342462
H           2.9985856    -3.6637496    -0.1046631
C           2.0717060    -0.5124200    -0.4129397
C           3.4761590     0.1701607    -0.3236935
O           3.4508046     1.0939079     0.7570215
C           2.9060629     2.3738649     0.4644408
H           3.0731339     2.9852524     1.3557551
H           1.8370182     2.3187218     0.2418490
H           3.4271669     2.8361735    -0.3886232
H           3.5254560     0.7174331    -1.2780521
O           1.1321858     0.2328207    -0.6833977
C           0.5780310    -2.3649925    -0.7698140
H          -0.1269052    -2.3255476     0.0723454
H           0.6727467    -3.4041454    -1.1013238
H           0.1796549    -1.7516778    -1.5773883
C           7.0867823    -2.2064223    -0.0758422
H           7.9952118    -2.8005065    -0.0230445
C           6.7141855    -1.3945042     0.9961164
H           7.3351648    -1.3515280     1.8873229
C           5.5498412    -0.6255792     0.9306457
H           5.2654651     0.0184807     1.7546062
C           4.7372555    -0.6703657    -0.2077610
C           5.1264164    -1.4755261    -1.2877533
H           4.5099545    -1.5058606    -2.1836404
C           6.2894053    -2.2415354    -1.2224408
H           6.5770865    -2.8597964    -2.0688752
29
179_C11H15NO2_0-5-6-24 (15,) energy =    -633.3833679
N           1.9214241    -1.8352633    -0.4161129
C           2.5590107    -2.6342493     0.6286628
H           1.8207938    -2.8826042     1.4040434
H           3.3741234    -2.0903474     1.0978320
H           2.9549838    -3.5684577     0.2137303
C           2.1274878    -0.4883938    -0.5966598
C           3.5159485     0.1780380    -0.3566657
O           3.4212488     0.9804458     0.8173961
C           2.7819353     2.2385708     0.6440616
H           2.8684135     2.7566728     1.6030476
H           1.7274412     2.1286239     0.3723008
H           3.2869307     2.8317637    -0.1336265
H           3.6253852     0.8275209    -1.2383851
O           1.2521500     0.2305106    -1.0769574
C           0.6323155    -2.3590829    -0.8604452
H          -0.1498006    -2.2165769    -0.1013926
H           0.7411921    -3.4308247    -1.0560549
H           0.3240273    -1.8441108    -1.7697566
C           7.0970230    -2.2475534    -0.1452782
H           8.0006745    -2.8497961    -0.1038539
C           6.7870910    -1.3728633     0.8960603
H           7.4514550    -1.2881690     1.7523074
C           5.6281782    -0.5941847     0.8452713
H           5.3900805     0.0947565     1.6470698
C           4.7583929    -0.6922281    -0.2460580
C           5.0832400    -1.5633702    -1.2962689
H           4.4214362    -1.6397733    -2.1559019
C           6.2410433    -2.3378333    -1.2459380
H           6.4774357    -3.0086359    -2.0678757
29
179_C11H15NO2_0-5-6-24 (30,) energy =    -633.3866370
N           1.9607039    -1.7525672    -0.4033832
C           2.5218044    -2.4162958     0.7703661
H           1.7203603    -2.6162333     1.4948053
H           3.2649299    -1.7889335     1.2557149
H           2.9885660    -3.3695997     0.4955885
C           2.2272052    -0.4535501    -0.7543368
C           3.5849029     0.2086866    -0.3836531
O           3.4251503     0.9038829     0.8527632
C           2.6958228     2.1209578     0.7576252
H           2.6946903     2.5549076     1.7608889
H           1.6649353     1.9591948     0.4229783
H           3.1836780     2.8186985     0.0607078
H           3.7356177     0.9358843    -1.1952627
O           1.4429613     0.2070323    -1.4346005
C           0.7143847    -2.3312608    -0.8941182
H          -0.1249774    -2.1250548    -0.2147488
H           0.8388211    -3.4161011    -0.9772624
H           0.4790724    -1.9072786    -1.8696989
C           7.1477898    -2.2464213    -0.2012633
H           8.0482155    -2.8540013    -0.1681514
C           6.8817016    -1.3260399     0.8124545
H           7.5774469    -1.2108230     1.6397241
C           5.7260637    -0.5425375     0.7709953
H           5.5207202     0.1777593     1.5542877
C           4.8151024    -0.6802809    -0.2819744
C           5.0940708    -1.5990536    -1.3039005
H           4.4009760    -1.7098120    -2.1342307
C           6.2497379    -2.3778488    -1.2631647
H           6.4497059    -3.0866995    -2.0624891
29
179_C11H15NO2_0-5-6-24 (45,) energy =    -633.3895818
N           1.9440269    -1.6642547    -0.3045446
C           2.4690499    -2.2349907     0.9302680
H           1.6380748    -2.4189670     1.6244125
H           3.1622492    -1.5499891     1.4114036
H           2.9781156    -3.1879842     0.7396409
C           2.3115788    -0.4536584    -0.8284804
C           3.6389534     0.2118400    -0.3663003
O           3.4562268     0.8388002     0.9019961
C           2.6467742     2.0060391     0.8579060
H           2.6047375     2.3906292     1.8799418
H           1.6298926     1.7918143     0.5054522
H           3.0884432     2.7687877     0.1998147
H           3.8117275     0.9828465    -1.1314459
O           1.6536407     0.1121221    -1.7009154
C           0.7460648    -2.3074323    -0.8281240
H          -0.1133214    -2.1561392    -0.1595582
H           0.9246396    -3.3849521    -0.9227223
H           0.5125574    -1.8804686    -1.8023882
C           7.1578382    -2.3084773    -0.2485098
H           8.0469421    -2.9331274    -0.2306265
C           6.9241164    -1.3873816     0.7727798
H           7.6336687    -1.2893902     1.5904697
C           5.7828494    -0.5827417     0.7514913
H           5.6020130     0.1365667     1.5420460
C           4.8552261    -0.6987839    -0.2893098
C           5.1001954    -1.6193486    -1.3176901
H           4.3942223    -1.7107695    -2.1396573
C           6.2419395    -2.4195280    -1.2971475
H           6.4160445    -3.1296416    -2.1013478
29
179_C11H15NO2_0-5-6-24 (60,) energy =    -633.3918653
N           1.8227223    -1.5256525    -0.3303750
C           2.2965208    -2.0183011     0.9558818
H           1.4341316    -2.1969857     1.6111064
H           2.9412979    -1.2876007     1.4365909
H           2.8410578    -2.9647742     0.8395381
C           2.3090941    -0.4336418    -0.9955221
C           3.5617681     0.3017413    -0.4380903
O           3.3244261     0.8963161     0.8321481
C           2.4088377     1.9803145     0.7906946
H           2.3464784     2.3738949     1.8080944
H           1.4089401     1.6634534     0.4635642
H           2.7613737     2.7728320     0.1145802
H           3.7353307     1.0925301    -1.1824809
O           1.8308647    -0.0370657    -2.0578123
C           0.7183216    -2.2701380    -0.9195657
H          -0.1661079    -2.2295524    -0.2698789
H           1.0009940    -3.3230184    -1.0498788
H           0.4798704    -1.8308551    -1.8870001
C           7.1124576    -2.1702996    -0.2814342
H           8.0080240    -2.7852712    -0.2531276
C           6.8219004    -1.3025512     0.7714603
H           7.4928785    -1.2371153     1.6242230
C           5.6722301    -0.5100580     0.7377049
H           5.4478676     0.1686335     1.5528284
C           4.7958384    -0.5853600    -0.3495461
C           5.0966553    -1.4521154    -1.4094232
H           4.4299907    -1.5045722    -2.2670345
C           6.2461418    -2.2402669    -1.3749401
H           6.4654972    -2.9083642    -2.2036700
29
179_C11H15NO2_0-5-6-24 (75,) energy =    -633.3932121
N           1.7622287    -1.4990566    -0.2968091
C           2.1914490    -1.9634048     1.0162591
H           1.3181596    -2.0361742     1.6765565
H           2.8992366    -1.2687438     1.4591748
H           2.6503434    -2.9593818     0.9461375
C           2.4025139    -0.5621051    -1.0609498
C           3.6063321     0.2235045    -0.4702195
O           3.3601789     0.8026016     0.8021428
C           2.4070670     1.8530312     0.7705193
H           2.3389790     2.2444675     1.7883946
H           1.4161028     1.4984076     0.4540681
H           2.7248908     2.6585315     0.0923972
H           3.7602542     1.0246813    -1.2081000
O           2.0844377    -0.3271384    -2.2265599
C           0.6869640    -2.2702209    -0.9076358
H          -0.1793125    -2.2978510    -0.2357185
H           1.0091249    -3.3034453    -1.0987012
H           0.4128050    -1.8013740    -1.8513838
C           7.2101972    -2.1756119    -0.3551297
H           8.1178650    -2.7729879    -0.3358880
C           6.8784775    -1.3653373     0.7306982
H           7.5289451    -1.3273220     1.6008587
C           5.7131369    -0.5954808     0.7080253
H           5.4583627     0.0400612     1.5486060
C           4.8641191    -0.6350438    -0.4026421
C           5.2042113    -1.4454961    -1.4950655
H           4.5556526    -1.4697210    -2.3669629
C           6.3691890    -2.2108018    -1.4698783
H           6.6205290    -2.8344612    -2.3237895
29
179_C11H15NO2_0-5-6-24 (90,) energy =    -633.3929780
N           1.6691583    -1.4900177    -0.3427073
C           2.0213891    -1.9494758     0.9970213
H           1.1385880    -1.8941406     1.6456329
H           2.8031515    -1.3280402     1.4238538
H           2.3584553    -2.9953888     0.9686799
C           2.4669023    -0.7163471    -1.1435388
C           3.6211481     0.1193874    -0.5251269
O           3.3545706     0.6775246     0.7492127
C           2.3918412     1.7193258     0.7224633
H           2.3140593     2.1002417     1.7436277
H           1.4068262     1.3575338     0.3966479
H           2.7078362     2.5346868     0.0552421
H           3.7411262     0.9337273    -1.2559166
O           2.2888506    -0.6220985    -2.3572996
C           0.5957204    -2.2402848    -0.9853146
H          -0.2730226    -2.2703947    -0.3183298
H           0.9055135    -3.2728524    -1.2006395
H           0.3327943    -1.7524182    -1.9227471
C           7.3409431    -2.1023316    -0.4421084
H           8.2772400    -2.6539835    -0.4279975
C           6.9419663    -1.3661125     0.6731450
H           7.5673360    -1.3404835     1.5619890
C           5.7399978    -0.6545422     0.6563667
H           5.4341149    -0.0747614     1.5198028
C           4.9225416    -0.6773563    -0.4784321
C           5.3284596    -1.4153519    -1.5995969
H           4.7004983    -1.4298009    -2.4856008
C           6.5299502    -2.1221261    -1.5792833
H           6.8331375    -2.6891073    -2.4556402
29
179_C11H15NO2_0-5-6-24 (105,) energy =    -633.3911655
N           1.6022118    -1.4219176    -0.3230592
C           1.8280808    -1.8248857     1.0638514
H           0.9308085    -1.6157405     1.6586129
H           2.6638316    -1.2772298     1.4897519
H           2.0299533    -2.9041526     1.1197870
C           2.5515062    -0.8412808    -1.1255024
C           3.6743512     0.0449675    -0.5156617
O           3.4059843     0.6134151     0.7522057
C           2.4656684     1.6753411     0.7151537
H           2.3864176     2.0590870     1.7351952
H           1.4769255     1.3343459     0.3794152
H           2.8072513     2.4832891     0.0514599
H           3.7508369     0.8548128    -1.2580438
O           2.4960747    -0.9055999    -2.3523310
C           0.5258749    -2.1448887    -0.9945741
H          -0.3690316    -2.1117195    -0.3642752
H           0.7937201    -3.1967147    -1.1685114
H           0.3238434    -1.6770998    -1.9572557
C           7.5019600    -1.9919982    -0.4625847
H           8.4641960    -2.4972616    -0.4530428
C           7.0441429    -1.3298012     0.6759774
H           7.6487636    -1.3159585     1.5793515
C           5.8086974    -0.6779094     0.6642707
H           5.4577592    -0.1538829     1.5459133
C           5.0167506    -0.6851612    -0.4889717
C           5.4810988    -1.3495911    -1.6331862
H           4.8691941    -1.3566547    -2.5293817
C           6.7156284    -1.9971423    -1.6170510
H           7.0640119    -2.5068017    -2.5116892
29
179_C11H15NO2_0-5-6-24 (120,) energy =    -633.3882128
N           1.5217550    -1.4036718    -0.2598646
C           1.6148421    -1.6959661     1.1713393
H           0.7100518    -1.3429047     1.6803056
H           2.4788196    -1.2003893     1.6048493
H           1.6954017    -2.7804470     1.3336111
C           2.5899355    -1.0231371    -1.0372608
C           3.6934006    -0.0745820    -0.4787507
O           3.4475370     0.5194898     0.7816508
C           2.5491646     1.6172512     0.7358358
H           2.4792762     2.0078326     1.7540242
H           1.5502194     1.3144995     0.3943921
H           2.9274472     2.4088586     0.0724200
H           3.7005220     0.7187406    -1.2433528
O           2.6275712    -1.2648746    -2.2413844
C           0.4473317    -2.1192556    -0.9448932
H          -0.4784121    -1.9861111    -0.3757290
H           0.6609400    -3.1944809    -1.0238562
H           0.3283044    -1.7187670    -1.9509645
C           7.6342340    -1.8864652    -0.5270841
H           8.6242379    -2.3349011    -0.5409668
C           7.1313775    -1.3271010     0.6470188
H           7.7280909    -1.3373428     1.5557051
C           5.8604403    -0.7479769     0.6639511
H           5.4756997    -0.3019790     1.5739574
C           5.0770567    -0.7245924    -0.4952425