23
215_C6H13NO2S_3-4-5-6 (-165,) energy =    -839.7930646
C           0.9296885    -1.2649022     0.5980035
H          -0.0076272    -1.8293118     0.5998804
H           1.0031819    -0.7135765    -0.3453670
S           2.2663299    -2.4980594     0.5796794
N           3.6626147    -1.5395320     0.7084741
C           4.1314161    -0.9318957    -0.5571250
C           5.5608290    -0.4025010    -0.4444294
H           5.9115379    -0.1011675    -1.4374634
H           6.2316034    -1.1787548    -0.0624046
H           5.6371512     0.4739957     0.2071977
H           3.4667327    -0.1196455    -0.8966075
H           4.0877915    -1.7206019    -1.3090936
C           3.6016492    -0.6691561     1.9078416
C           2.4401389     0.3404759     1.8966911
H           2.4953892     0.9490744     2.8076114
C           1.0652044    -0.3472513     1.8227665
H           0.2671529     0.4038870     1.7829017
H           0.9006972    -0.9440851     2.7272999
H           2.5544602     1.0335689     1.0518526
H           4.5626852    -0.1552822     1.9875910
H           3.5198133    -1.3300830     2.7752592
O           2.1590009    -3.2678837     1.8224059
O           2.2918648    -3.1605426    -0.7264410
23
215_C6H13NO2S_3-4-5-6 (-150,) energy =    -839.7938434
C           0.9303321    -1.3074912     0.6106600
H           0.0262785    -1.9237486     0.6208359
H           0.9651201    -0.7515064    -0.3323906
S           2.3373159    -2.4579168     0.5783458
N           3.6724744    -1.4215932     0.7020803
C           4.1649586    -0.8078392    -0.5479289
C           5.6696791    -0.5419494    -0.4883910
H           6.0106612    -0.1490786    -1.4528623
H           6.2131063    -1.4676405    -0.2763989
H           5.9343683     0.1951101     0.2774531
H           3.6282378     0.1276728    -0.7761307
H           3.9499568    -1.5136547    -1.3515384
C           3.5791536    -0.5476207     1.8950077
C           2.3556966     0.3863959     1.8917530
H           2.3826346     1.0033171     2.7983410
C           1.0250951    -0.3848124     1.8354297
H           0.1825083     0.3165207     1.8063253
H           0.9081736    -0.9910412     2.7411175
H           2.4172660     1.0793600     1.0414069
H           4.5063543     0.0296401     1.9471415
H           3.5563557    -1.1990648     2.7733171
O           2.2851842    -3.2340338     1.8207566
O           2.3921789    -3.1163922    -0.7291503
23
215_C6H13NO2S_3-4-5-6 (-135,) energy =    -839.7940381
C           0.9311642    -1.3597899     0.6491926
H           0.0671082    -2.0305199     0.6777690
H           0.9160553    -0.8060646    -0.2956539
S           2.4079976    -2.4184434     0.5961380
N           3.6675641    -1.3012567     0.7147956
C           4.2015986    -0.6996307    -0.5218912
C           5.7307839    -0.6863139    -0.5171026
H           6.1045606    -0.2259118    -1.4391024
H           6.1183680    -1.7071744    -0.4523038
H           6.1324670    -0.1145978     0.3272179
H           3.8095440     0.3207049    -0.6538213
H           3.8452346    -1.3003665    -1.3606306
C           3.5471404    -0.4260005     1.9005707
C           2.2668541     0.4274931     1.9039690
H           2.2625053     1.0563722     2.8027868
C           0.9880999    -0.4283295     1.8702403
H           0.1021888     0.2178033     1.8536396
H           0.9245742    -1.0377216     2.7792105
H           2.2762996     1.1108382     1.0433317
H           4.4375663     0.2096904     1.9218090
H           3.5833253    -1.0627489     2.7895972
O           2.4138793    -3.2032331     1.8342305
O           2.4957324    -3.0642684    -0.7160948
23
215_C6H13NO2S_3-4-5-6 (-120,) energy =    -839.7936472
C           0.9124259    -1.3705877     0.6905588
H           0.0804449    -2.0802875     0.7289393
H           0.8630168    -0.8198648    -0.2548345
S           2.4388651    -2.3551965     0.6250105
N           3.6294333    -1.1737433     0.7377124
C           4.2022488    -0.5930505    -0.4911240
C           5.7103153    -0.8306322    -0.5732159
H           6.1201862    -0.3663290    -1.4781993
H           5.9211414    -1.9035229    -0.6035994
H           6.2313367    -0.4047207     0.2919650
H           3.9762449     0.4822219    -0.5236028
H           3.7126477    -1.0566882    -1.3504066
C           3.4895341    -0.3057302     1.9233514
C           2.1700525     0.4849287     1.9349865
H           2.1378148     1.1146170     2.8327468
C           0.9353986    -0.4344059     1.9097535
H           0.0184737     0.1669876     1.8993718
H           0.9088911    -1.0445670     2.8201178
H           2.1428188     1.1642349     1.0712232
H           4.3511693     0.3692091     1.9309390
H           3.5645872    -0.9358324     2.8151581
O           2.4880455    -3.1434621     1.8601761
O           2.5557842    -2.9895586    -0.6905487
23
215_C6H13NO2S_3-4-5-6 (-105,) energy =    -839.7934174
C           0.8900410    -0.1607285     0.5433314
H          -0.0941534    -0.2440766     0.0722508
H           1.1272334     0.8953075     0.6995676
S           2.0687772    -0.7727691    -0.6870847
N           3.4818446    -0.6805787     0.2274596
C           4.7494298    -0.4045959    -0.4721389
C           5.6768240    -1.6126593    -0.6342573
H           6.5902911    -1.3060131    -1.1567037
H           5.1978818    -2.4050543    -1.2195220
H           5.9763024    -2.0335037     0.3314870
H           5.2694761     0.3796517     0.0959307
H           4.4919441     0.0250949    -1.4416624
C           3.4784189    -1.4576696     1.4768434
C           2.3963094    -0.9525450     2.4418372
H           2.4187453    -1.5674454     3.3499590
C           0.9860327    -0.9856465     1.8335227
H           0.2567486    -0.5910930     2.5512191
H           0.6941886    -2.0190192     1.6129247
H           2.6430806     0.0753211     2.7381929
H           4.4629262    -1.3242912     1.9356843
H           3.3498798    -2.5317944     1.2784236
O           1.7009933    -2.1700529    -0.9737435
O           2.1963119     0.1863780    -1.7899529
23
215_C6H13NO2S_3-4-5-6 (-90,) energy =    -839.7956596
C           0.8922976    -0.2412426     0.5370934
H          -0.0652785    -0.3936442     0.0297548
H           1.0548957     0.8295734     0.6869027
S           2.1517735    -0.7879323    -0.6433102
N           3.5255368    -0.5670484     0.3269621
C           4.8059224    -0.4148706    -0.3925825
C           5.5663618    -1.7159937    -0.6689154
H           6.4967991    -1.4930680    -1.2036521
H           4.9716361    -2.3978312    -1.2857085
H           5.8336097    -2.2373758     0.2566119
H           5.4239740     0.2550017     0.2197875
H           4.5860875     0.1147062    -1.3218089
C           3.5193637    -1.3575833     1.5721890
C           2.3769019    -0.9153087     2.4959111
H           2.4075429    -1.5208695     3.4098992
C           0.9937356    -1.0444088     1.8401924
H           0.2157251    -0.6898305     2.5268787
H           0.7763913    -2.0965304     1.6224238
H           2.5483363     0.1281792     2.7900082
H           4.4803418    -1.1714305     2.0634393
H           3.4556093    -2.4359422     1.3658669
O           1.9026690    -2.2145624    -0.9189576
O           2.2488971     0.1592032    -1.7593405
23
215_C6H13NO2S_3-4-5-6 (-75,) energy =    -839.7965742
C           0.8982119    -0.3019341     0.5243275
H          -0.0389877    -0.5072700    -0.0020695
H           1.0160253     0.7785322     0.6433926
S           2.2088454    -0.8351219    -0.6060998
N           3.5488072    -0.5088187     0.3916794
C           4.8414018    -0.4120539    -0.3194585
C           5.4568562    -1.7371236    -0.7828085
H           6.4127492    -1.5441000    -1.2832853
H           4.7992644    -2.2561736    -1.4863221
H           5.6522130    -2.4108667     0.0589230
H           5.5201569     0.1032963     0.3711487
H           4.6811497     0.2542125    -1.1704662
C           3.5359697    -1.2879557     1.6481475
C           2.3593996    -0.8644718     2.5365810
H           2.3906074    -1.4458798     3.4660431
C           0.9966144    -1.0601095     1.8544953
H           0.1914174    -0.7110678     2.5120516
H           0.8197409    -2.1252210     1.6654048
H           2.4875702     0.1913540     2.8073774
H           4.4808155    -1.0689120     2.1571483
H           3.5049339    -2.3699984     1.4550692
O           2.0328430    -2.2815202    -0.8313136
O           2.2941716     0.0718092    -1.7557570
23
215_C6H13NO2S_3-4-5-6 (-60,) energy =    -839.7956820
C           0.9132397    -0.3498632     0.4759272
H          -0.0039695    -0.5935672    -0.0689959
H           1.0110076     0.7365070     0.5511434
S           2.2673950    -0.9118423    -0.5877663
N           3.5708435    -0.4970515     0.4277244
C           4.8838929    -0.4281840    -0.2551183
C           5.3816593    -1.7107050    -0.9315459
H           6.3808107    -1.5373142    -1.3481118
H           4.7206431    -2.0127598    -1.7478342
H           5.4513871    -2.5452618    -0.2251968
H           5.5906958    -0.0949064     0.5128083
H           4.8097746     0.3734353    -0.9951723
C           3.5346736    -1.2371857     1.7104241
C           2.3249243    -0.8055287     2.5494728
H           2.3406548    -1.3530658     3.4996693
C           0.9843489    -1.0498088     1.8393425
H           0.1565068    -0.6861948     2.4598154
H           0.8281872    -2.1243061     1.6899204
H           2.4276018     0.2613242     2.7856866
H           4.4581789    -0.9824428     2.2406711
H           3.5291000    -2.3255761     1.5534380
O           2.1292149    -2.3718785    -0.7349797
O           2.3699616    -0.0685277    -1.7835542
23
215_C6H13NO2S_3-4-5-6 (-45,) energy =    -839.7933535
C           0.9369112    -0.3970278     0.4763017
H           0.0368077    -0.6762170    -0.0800969
H           1.0200937     0.6927750     0.5047058
S           2.3214888    -0.9885919    -0.5306465
N           3.6015741    -0.5020152     0.4854175
C           4.9373237    -0.4707488    -0.1693009
C           5.3282451    -1.6613349    -1.0532825
H           6.3597743    -1.5236398    -1.3983801
H           4.6844846    -1.7295031    -1.9327996
H           5.2731041    -2.6123530    -0.5133650
H           5.6543185    -0.3435992     0.6475740
H           4.9701567     0.4432966    -0.7707746
C           3.5402681    -1.1895361     1.7998039
C           2.3067625    -0.7402781     2.5935831
H           2.3122888    -1.2450894     3.5672733
C           0.9840438    -1.0344579     1.8700221
H           0.1392079    -0.6534775     2.4562192
H           0.8437418    -2.1164297     1.7660195
H           2.3898374     0.3373705     2.7842903
H           4.4446299    -0.8992033     2.3433918
H           3.5532490    -2.2837392     1.6879898
O           2.2101942    -2.4561581    -0.6065773
O           2.4291710    -0.2021656    -1.7643991
23
215_C6H13NO2S_3-4-5-6 (-30,) energy =    -839.7902269
C           0.9288548    -0.4666642     0.4950344
H           0.0407359    -0.7839265    -0.0602861
H           0.9964040     0.6243760     0.4724018
S           2.3300903    -1.0825462    -0.4738915
N           3.6014848    -0.5380948     0.5237919
C           4.9617477    -0.5370117    -0.0976089
C           5.2748952    -1.5798251    -1.1779043
H           6.3290506    -1.4790006    -1.4617692
H           4.6659161    -1.4232735    -2.0697220
H           5.1107796    -2.6020351    -0.8228910
H           5.6630213    -0.6401310     0.7351029
H           5.1135165     0.4615748    -0.5223589
C           3.5243562    -1.1505450     1.8762705
C           2.2769142    -0.6796303     2.6335983
H           2.2846127    -1.1309895     3.6331911
C           0.9667493    -1.0348386     1.9168876
H           0.1090345    -0.6405510     2.4748409
H           0.8470203    -2.1230957     1.8652314
H           2.3403511     0.4080724     2.7664426
H           4.4146448    -0.8167192     2.4171139
H           3.5559366    -2.2493431     1.8240235
O           2.2400972    -2.5537319    -0.4891376
O           2.4183684    -0.3436837    -1.7383960
23
215_C6H13NO2S_3-4-5-6 (-15,) energy =    -839.7878029
C           0.8975955    -0.5178236     0.4198864
H           0.0178707    -0.8689833    -0.1283825
H           0.9581947     0.5710109     0.3405860
S           2.3079485    -1.1711033    -0.5111035
N           3.5738201    -0.5923198     0.4701279
C           4.9593326    -0.6046614    -0.1015677
C           5.2301549    -1.4349469    -1.3612842
H           6.3067777    -1.4017579    -1.5648962
H           4.7005424    -1.0422005    -2.2295438
H           4.9388963    -2.4809824    -1.2246061
H           5.6113073    -0.9658232     0.6998756
H           5.2351253     0.4386430    -0.2952708
C           3.4771951    -1.1040212     1.8616575
C           2.2200370    -0.5957814     2.5756371
H           2.2233779    -0.9826856     3.6019356
C           0.9219081    -1.0072929     1.8695509
H           0.0536760    -0.5917304     2.3948709
H           0.8144934    -2.0981310     1.8780554
H           2.2726826     0.4987746     2.6397593
H           4.3581904    -0.7269560     2.3887979
H           3.5192351    -2.2041018     1.8834304
O           2.2167150    -2.6424077    -0.4715021
O           2.3872863    -0.4792286    -1.8020370
23
215_C6H13NO2S_3-4-5-6 (0,) energy =    -839.7872750
C           0.8833221    -0.5690222     0.4332927
H           0.0039696    -0.9497607    -0.0955423
H           0.9423941     0.5140100     0.2949303
S           2.2891798    -1.2691761    -0.4709234
N           3.5599646    -0.6640026     0.4839008
C           4.9584379    -0.7211344    -0.0448447
C           5.1960264    -1.3244931    -1.4314012
H           6.2787556    -1.3532148    -1.5999717
H           4.7330127    -0.7381465    -2.2249209
H           4.8150067    -2.3483296    -1.4941577
H           5.5422725    -1.3067844     0.6759108
H           5.3485665     0.3038466    -0.0193486
C           3.4582032    -1.0648223     1.9082563
C           2.2003660    -0.5151653     2.5876813
H           2.2054914    -0.8360683     3.6364511
C           0.9067518    -0.9774504     1.9069329
H           0.0334725    -0.5418930     2.4070627
H           0.8096736    -2.0672758     1.9761594
H           2.2479750     0.5815177     2.5824857
H           4.3392000    -0.6460986     2.4040973
H           3.5092255    -2.1605391     2.0102098
O           2.1895173    -2.7377127    -0.3751449
O           2.3574655    -0.6296856    -1.7885895
23
215_C6H13NO2S_3-4-5-6 (15,) energy =    -839.7881830
C           1.0100587    -0.6278084     0.2818832
H           0.1551047    -1.0326751    -0.2686746
H           1.0573396     0.4528975     0.1223940
S           2.4532582    -1.3225177    -0.5667917
N           3.6862462    -0.6869385     0.4236110
C           5.1062758    -0.7974500    -0.0247993
C           5.3858303    -1.1520980    -1.4850923
H           6.4740628    -1.1968529    -1.6090060
H           4.9835357    -0.4135444    -2.1792316
H           4.9751262    -2.1300211    -1.7505923
H           5.5916265    -1.5615049     0.5996098
H           5.5746560     0.1639361     0.2198411
C           3.5355264    -1.0539619     1.8521362
C           2.2504622    -0.5040385     2.4763244
H           2.2251219    -0.7982872     3.5325403
C           0.9883936    -1.0034282     1.7638892
H           0.0913394    -0.5714169     2.2233937
H           0.9063891    -2.0929344     1.8552840
H           2.2828110     0.5927190     2.4447603
H           4.3980742    -0.6171097     2.3658466
H           3.5947730    -2.1467951     1.9792974
O           2.3767729    -2.7914812    -0.4560374
O           2.5462530    -0.6999370    -1.8904800
23
215_C6H13NO2S_3-4-5-6 (30,) energy =    -839.7897423
C           1.0028396    -0.6597272     0.2934200
H           0.1465718    -1.0892171    -0.2360782
H           1.0475044     0.4129707     0.0859155
S           2.4427623    -1.3865819    -0.5339551
N           3.6838335    -0.7054659     0.4241414
C           5.0954900    -0.9066544    -0.0095073
C           5.3762916    -1.0481917    -1.5041171
H           6.4636612    -1.1072761    -1.6298118
H           5.0026860    -0.1977060    -2.0770886
H           4.9381497    -1.9573975    -1.9217429
H           5.4934382    -1.7989525     0.4989548
H           5.6404365    -0.0412824     0.3872191
C           3.5327595    -1.0183665     1.8659488
C           2.2534619    -0.4378314     2.4730194
H           2.2343969    -0.6848700     3.5413443
C           0.9876164    -0.9685716     1.7905857
H           0.0923489    -0.5166590     2.2341139
H           0.9067882    -2.0529031     1.9316240
H           2.2864519     0.6563502     2.3926621
H           4.4018477    -0.5711605     2.3601854
H           3.5844233    -2.1062394     2.0330878
O           2.3807609    -2.8501168    -0.3612981
O           2.5196339    -0.8206431    -1.8835893
23
215_C6H13NO2S_3-4-5-6 (45,) energy =    -839.7913917
C           1.0308700    -0.7026824     0.2572996
H           0.1793255    -1.1559759    -0.2598389
H           1.0738602     0.3608040     0.0063827
S           2.4789973    -1.4573685    -0.5296543
N           3.7169091    -0.7239449     0.4040023
C           5.1181316    -0.9998522    -0.0181476
C           5.4299371    -0.9078650    -1.5102876
H           6.5177112    -0.9743547    -1.6288941
H           5.0898575     0.0397348    -1.9350862
H           4.9744938    -1.7164239    -2.0837874
H           5.4235749    -1.9918121     0.3524424
H           5.7161467    -0.2572530     0.5230818
C           3.5534420    -0.9980512     1.8544326
C           2.2713181    -0.3945289     2.4327932
H           2.2468561    -0.6006067     3.5096196
C           1.0082346    -0.9508267     1.7656440
H           0.1113236    -0.4805414     2.1861537
H           0.9255752    -2.0285044     1.9497022
H           2.3055140     0.6957497     2.3110241
H           4.4205908    -0.5415750     2.3433629
H           3.5972418    -2.0808313     2.0524237
O           2.4338899    -2.9114276    -0.2871970
O           2.5575209    -0.9564218    -1.9045915
23
215_C6H13NO2S_3-4-5-6 (60,) energy =    -839.7927516
C           1.0110993    -0.7810744     0.2079837
H           0.1576119    -1.2539589    -0.2878716
H           1.0669984     0.2663207    -0.1014194
S           2.4586365    -1.5926655    -0.5195630
N           3.6993962    -0.8007139     0.3706821
C           5.0854930    -1.1417005    -0.0558164
C           5.4398825    -0.8147799    -1.5053896
H           6.5233827    -0.9282427    -1.6276563
H           5.1699085     0.2170512    -1.7491940
H           4.9399413    -1.4709754    -2.2175778
H           5.2975089    -2.2019098     0.1559151
H           5.7239496    -0.5495369     0.6091025
C           3.5275447    -1.0146845     1.8326515
C           2.2469772    -0.3722766     2.3727127
H           2.2142823    -0.5255323     3.4581198
C           0.9794869    -0.9457437     1.7280287
H           0.0880743    -0.4395587     2.1174390
H           0.8794024    -2.0102785     1.9699619
H           2.2938363     0.7103684     2.1985699
H           4.3944477    -0.5443134     2.3078325
H           3.5579144    -2.0877836     2.0778358
O           2.4096468    -3.0255479    -0.1747997
O           2.5516510    -1.1918391    -1.9262479
23
215_C6H13NO2S_3-4-5-6 (75,) energy =    -839.7937449
C           1.0167900    -0.8366519     0.2139596
H           0.1508863    -1.3263355    -0.2423869
H           1.0910747     0.1858265    -0.1666202
S           2.4481072    -1.7252708    -0.4496473
N           3.7012615    -0.8839190     0.3706213
C           5.0665459    -1.2529772    -0.0997054
C           5.4492052    -0.6633538    -1.4561980
H           6.5111817    -0.8625952    -1.6423525
H           5.2960724     0.4207909    -1.4582555
H           4.8637415    -1.0936543    -2.2685579
H           5.1961293    -2.3460511    -0.0975817
H           5.7414133    -0.8563797     0.6658756
C           3.5463764    -1.0067116     1.8439697
C           2.2761866    -0.3125521     2.3465964
H           2.2438766    -0.3979822     3.4394516
C           0.9937203    -0.8995877     1.7430443
H           0.1155792    -0.3508404     2.1036971
H           0.8732298    -1.9440395     2.0530261
H           2.3421482     0.7562130     2.1056263
H           4.4203011    -0.5141039     2.2816620
H           3.5657422    -2.0612923     2.1594549
O           2.3729932    -3.1230339     0.0130717
O           2.5607709    -1.4482525    -1.8846379
23
215_C6H13NO2S_3-4-5-6 (90,) energy =    -839.7943636
C           1.0307750    -0.9007010     0.1756906
H           0.1505086    -1.4022983    -0.2380524
H           1.1271038     0.0891365    -0.2788908
S           2.4443477    -1.8673457    -0.4099663
N           3.7014039    -0.9891172     0.3451618
C           5.0491358    -1.3521996    -0.1774073
C           5.4679258    -0.4906010    -1.3662872
H           6.4891431    -0.7500922    -1.6700138
H           5.4461561     0.5706535    -1.0965414
H           4.7999658    -0.6478034    -2.2151158
H           5.0991476    -2.4203009    -0.4290762
H           5.7445339    -1.2007502     0.6544469
C           3.5671163    -1.0032855     1.8226584
C           2.3087011    -0.2526052     2.2741469
H           2.2700389    -0.2637296     3.3701104
C           1.0135353    -0.8518458     1.7073190
H           0.1487356    -0.2588460     2.0279797
H           0.8688806    -1.8685236     2.0903814
H           2.3971334     0.7957896     1.9616352
H           4.4515202    -0.4923262     2.2154659
H           3.5710925    -2.0313572     2.2159385
O           2.3285615    -3.2216219     0.1601278
O           2.5975451    -1.7099584    -1.8595859
23
215_C6H13NO2S_3-4-5-6 (105,) energy =    -839.7943816
C           0.9962270    -0.9470613     0.2416658
H           0.0954974    -1.4643144    -0.1028582
H           1.0879481     0.0061059    -0.2861894
S           2.3785993    -1.9732866    -0.3162777
N           3.6608968    -1.0690905     0.3435776
C           4.9873629    -1.4295094    -0.2282030
C           5.4806313    -0.3663243    -1.2055804
H           6.4718211    -0.6334777    -1.5912604
H           5.5519161     0.6112748    -0.7162454
H           4.7902044    -0.2821689    -2.0490647
H           4.9420157    -2.4060596    -0.7224680
H           5.6839162    -1.5413252     0.6099907
C           3.5862666    -0.9579350     1.8173888
C           2.3490003    -0.1620052     2.2496716
H           2.3421463    -0.0915900     3.3441186
C           1.0316174    -0.7869004     1.7663436
H           0.1830606    -0.1622514     2.0699723
H           0.8894758    -1.7712345     2.2270120
H           2.4369300     0.8594217     1.8577040
H           4.4881666    -0.4242549     2.1329455
H           3.5994390    -1.9501835     2.2944481
O           2.2498729    -3.2864668     0.3401864
O           2.5118829    -1.9074035    -1.7752715
23
215_C6H13NO2S_3-4-5-6 (120,) energy =    -839.7948340
C           0.9611064    -1.0192900     0.2597184
H           0.0437510    -1.5485479    -0.0157194
H           1.0432023    -0.1061297    -0.3359850
S           2.3144075    -2.0982450    -0.2704606
N           3.6178696    -1.1644102     0.2878736
C           4.9305889    -1.4855720    -0.3224911
C           5.5140375    -0.2718920    -1.0427154
H           6.4976985    -0.5126816    -1.4632547
H           5.6349606     0.5775735    -0.3603672
H           4.8517300     0.0341015    -1.8576277
H           4.8044733    -2.3045897    -1.0354888
H           5.6066377    -1.8471437     0.4625747
C           3.6031667    -0.9374989     1.7471588
C           2.3846846    -0.1058231     2.1658658
H           2.4126435     0.0389129     3.2526530
C           1.0500482    -0.7546320     1.7680786
H           0.2142226    -0.1058950     2.0562191
H           0.9194136    -1.7044669     2.2992594
H           2.4635262     0.8860245     1.7024431
H           4.5192266    -0.3873424     1.9845673
H           3.6344565    -1.8915080     2.2961339
O           2.1874650    -3.3618124     0.4772568
O           2.4041735    -2.1297852    -1.7339847
23
215_C6H13NO2S_3-4-5-6 (135,) energy =    -839.7958696
C           0.9114121    -1.0771863     0.3434099
H          -0.0032797    -1.6392814     0.1313156
H           0.9495377    -0.1950670    -0.3014783
S           2.2672858    -2.1536933    -0.1848719
N           3.5692134    -1.1547615     0.2666090
C           4.8686007    -1.5016548    -0.3513129
C           5.5831163    -0.2507243    -0.8609168
H           6.5514809    -0.5200689    -1.2984354
H           5.7694391     0.4687751    -0.0549332
H           4.9788834     0.2435825    -1.6272101
H           4.6756614    -2.1721339    -1.1921605
H           5.4901889    -2.0506348     0.3700276
C           3.6032435    -0.8633256     1.7145408
C           2.3851746    -0.0363636     2.1425859
H           2.4533616     0.1621730     3.2190346
C           1.0509313    -0.7316781     1.8314060
H           0.2121491    -0.0858282     2.1174403
H           0.9616968    -1.6546419     2.4158179
H           2.4233141     0.9329941     1.6291936
H           4.5170421    -0.2884903     1.8948967
H           3.6736284    -1.7926598     2.3009941
O           2.2069155    -3.3759748     0.6362389
O           2.2918855    -2.2639433    -1.6470801
23
215_C6H13NO2S_3-4-5-6 (150,) energy =    -839.7962741
C           0.8161732    -1.1328545     0.4413036
H          -0.0885789    -1.7327461     0.3029256
H           0.7834604    -0.2717929    -0.2316979
S           2.1736812    -2.1794284    -0.1405280
N           3.4709765    -1.1125061     0.1845487
C           4.7405797    -1.5183725    -0.4620403
C           5.6078707    -0.3043443    -0.7923293
H           6.5283929    -0.6323435    -1.2881889
H           5.8994362     0.2559675     0.1029975
H           5.0741578     0.3755143    -1.4633372
H           4.4802801    -2.0373797    -1.3873640
H           5.2872974    -2.2293990     0.1757315
C           3.5773419    -0.7988220     1.6279005
C           2.3651107     0.0062315     2.1105234
H           2.4963180     0.2376375     3.1744539
C           1.0350529    -0.7346485     1.9059219
H           0.1966266    -0.1028976     2.2228829
H           1.0091577    -1.6396513     2.5236613
H           2.3423430     0.9611515     1.5699884
H           4.4842942    -0.2007392     1.7534621
H           3.7007847    -1.7184774     2.2204099
O           2.2240741    -3.3709548     0.7254548
O           2.0963070    -2.3435192    -1.5958268
23
215_C6H13NO2S_3-4-5-6 (165,) energy =    -839.7956429
C           0.8041508    -1.2018803     0.4644508
H          -0.0700023    -1.8528165     0.3655196
H           0.7082794    -0.3631056    -0.2303974
S           2.1990381    -2.1917824    -0.1262820
N           3.4556780    -1.0493576     0.1212013
C           4.7180166    -1.4849184    -0.5278417
C           5.7296448    -0.3453992    -0.6409959
H           6.5831408    -0.6811523    -1.2400402
H           6.1214135    -0.0272904     0.3304627
H           5.2821180     0.5225958    -1.1360765
H           4.4472031    -1.8352655    -1.5261747
H           5.1622397    -2.3339869     0.0148624
C           3.5775972    -0.6970504     1.5570629
C           2.3375935     0.0575875     2.0519342
H           2.4891170     0.3274596     3.1039949
C           1.0417187    -0.7535743     1.9105027
H           0.1816427    -0.1569108     2.2371359
H           1.0814445    -1.6418060     2.5514112
H           2.2506505     0.9937253     1.4856036
H           4.4501329    -0.0462355     1.6496961
H           3.7636935    -1.5937360     2.1682082
O           2.3438425    -3.3491107     0.7749235
O           2.0826156    -2.4081226    -1.5719892
23
215_C6H13NO2S_3-4-5-6 (180,) energy =    -839.7941419
C           0.8192237    -1.2662951     0.5509832
H          -0.0203842    -1.9658685     0.4935291
H           0.6623780    -0.4566514    -0.1670005
S           2.2520906    -2.1981007    -0.0418786
N           3.4560620    -0.9833759     0.1297168
C           4.7117830    -1.4162691    -0.5453023
C           5.8321290    -0.3842945    -0.4350505
H           6.6517692    -0.6829322    -1.0973018
H           6.2431980    -0.3111319     0.5762260
H           5.4892580     0.6084351    -0.7471055
H           4.4527287    -1.5782013    -1.5935229
H           5.0620571    -2.3769302    -0.1368453
C           3.5921012    -0.5845191     1.5537694
C           2.3241201     0.1192170     2.0546034
H           2.4880346     0.4329698     3.0925792
C           1.0673346    -0.7586386     1.9750700
H           0.1871909    -0.1924134     2.3025315
H           1.1654400    -1.6208244     2.6444684
H           2.1749894     1.0296403     1.4599788
H           4.4256847     0.1182119     1.6081567
H           3.8396444    -1.4495435     2.1881444
O           2.4843233    -3.3111779     0.8961771
O           2.1145698    -2.4743032    -1.4752199
