21
449_C9H9N3_4-5-17-18 (-165,) energy =    -512.6165915
C           5.8740268     0.9499868    -0.3913654
H           6.7572811     1.5784454    -0.4435884
C           5.9256788    -0.2951503     0.2267120
H           6.8523225    -0.6592646     0.6668090
N           4.8768141    -1.1235960     0.3184691
C           3.7199811    -0.7158474    -0.2015072
C           3.5481926     0.5206140    -0.8448952
H           2.5813549     0.7858546    -1.2510628
C           4.6527531     1.3564005    -0.9378185
H           4.5604774     2.3210974    -1.4292929
C           1.2156145    -3.2252355     0.3803539
H           0.7535638    -4.1026719     0.8103813
C           2.4698960    -2.7357481     0.6836412
C           3.4646684    -3.2729710     1.6637960
H           3.0082820    -4.1098369     2.2015059
H           3.7717331    -2.5155821     2.3914340
H           4.3766256    -3.6209649     1.1713842
N           2.6232578    -1.6047448    -0.0976205
N           1.5256625    -1.3647090    -0.8788256
C           0.6836599    -2.3424420    -0.5864313
H          -0.2774793    -2.3829733    -1.0832616
21
449_C9H9N3_4-5-17-18 (-150,) energy =    -512.6156331
C           5.8829066     0.9125741    -0.4317471
H           6.7703556     1.5334842    -0.5016579
C           5.9702269    -0.3965331     0.0329018
H           6.9288876    -0.8170912     0.3310130
N           4.9195302    -1.2222850     0.1301054
C           3.7257592    -0.7401205    -0.2137709
C           3.5166854     0.5622425    -0.6911251
H           2.5193383     0.8809405    -0.9655472
C           4.6238226     1.3932713    -0.8031442
H           4.5051671     2.4088470    -1.1707022
C           1.2293747    -3.2573675     0.3481135
H           0.7590151    -4.1233389     0.7922065
C           2.4514311    -2.7217447     0.7023749
C           3.4063253    -3.1671957     1.7645416
H           2.9333027    -3.9538240     2.3599665
H           3.6822002    -2.3461118     2.4347358
H           4.3362162    -3.5527976     1.3381312
N           2.6252257    -1.6257571    -0.1180054
N           1.5785079    -1.4511203    -0.9814595
C           0.7412156    -2.4359311    -0.6935236
H          -0.1839092    -2.5265504    -1.2486666
21
449_C9H9N3_4-5-17-18 (-135,) energy =    -512.6136988
C           5.8964667     0.8807307    -0.4748242
H           6.7891524     1.4910919    -0.5683157
C           5.9956665    -0.4710731    -0.1545078
H           6.9680381    -0.9337236     0.0037943
N           4.9389751    -1.2873603    -0.0429785
C           3.7314622    -0.7499433    -0.2138034
C           3.5107368     0.5951533    -0.5368793
H           2.4994580     0.9551102    -0.6814638
C           4.6220683     1.4182764    -0.6737789
H           4.4959617     2.4675059    -0.9260446
C           1.2518394    -3.2872910     0.3126378
H           0.7774842    -4.1488983     0.7610243
C           2.4307664    -2.6961655     0.7218812
C           3.3427900    -3.0520689     1.8530933
H           2.8776891    -3.8339925     2.4601507
H           3.5405602    -2.1902721     2.5009323
H           4.3107128    -3.4103305     1.4914931
N           2.6191638    -1.6248000    -0.1217182
N           1.6356543    -1.5232974    -1.0675618
C           0.8110218    -2.5239969    -0.7927552
H          -0.0709569    -2.6681884    -1.4039862
21
449_C9H9N3_4-5-17-18 (-120,) energy =    -512.6109956
C           5.9161757     0.8369336    -0.5004506
H           6.8128427     1.4385360    -0.6119743
C           6.0098381    -0.5441490    -0.3365112
H           6.9806546    -1.0358629    -0.3205378
N           4.9470850    -1.3504186    -0.2144375
C           3.7439877    -0.7762622    -0.2115619
C           3.5305740     0.5971308    -0.3684350
H           2.5197601     0.9878763    -0.3781677
C           4.6453588     1.4151129    -0.5207699
H           4.5248375     2.4872330    -0.6485336
C           1.2759445    -3.3245043     0.3014862
H           0.7969633    -4.1771938     0.7618762
C           2.4082915    -2.6757316     0.7533443
C           3.2736794    -2.9378709     1.9449285
H           2.8478359    -3.7538972     2.5350336
H           3.3495906    -2.0561567     2.5931022
H           4.2901723    -3.2117036     1.6459827
N           2.6173593    -1.6395834    -0.1246539
N           1.7029452    -1.6201961    -1.1421066
C           0.8895855    -2.6317669    -0.8690097
H           0.0539353    -2.8331289    -1.5274468
21
449_C9H9N3_4-5-17-18 (-105,) energy =    -512.6080097
C           5.9224345     0.8114377    -0.5261816
H           6.8196797     1.4112870    -0.6433453
C           5.9990957    -0.5814607    -0.5417320
H           6.9567183    -1.0817970    -0.6726213
N           4.9338675    -1.3838141    -0.4216347
C           3.7485931    -0.7994768    -0.2448464
C           3.5545170     0.5834083    -0.2136084
H           2.5554356     0.9845500    -0.0856695
C           4.6701410     1.4037423    -0.3614770
H           4.5634348     2.4847687    -0.3465039
C           1.2846681    -3.3470245     0.2877396
H           0.7953782    -4.1793848     0.7737958
C           2.3728159    -2.6406892     0.7624000
C           3.1886755    -2.8031777     2.0054709
H           2.7766216    -3.6113240     2.6155533
H           3.1924937    -1.8899371     2.6134663
H           4.2305092    -3.0447501     1.7680578
N           2.6120279    -1.6582955    -0.1654153
N           1.7704932    -1.7325693    -1.2402518
C           0.9609947    -2.7433881    -0.9489301
H           0.1714238    -3.0066465    -1.6415783
21
449_C9H9N3_4-5-17-18 (-90,) energy =    -512.6056607
C           5.9274090     0.8093933    -0.5372990
H           6.8134677     1.4291079    -0.6353902
C           5.9921737    -0.5602211    -0.7991030
H           6.9302331    -1.0201689    -1.1041386
N           4.9412052    -1.3836332    -0.7056962
C           3.7799476    -0.8475628    -0.3299466
C           3.5994850     0.5071977    -0.0456063
H           2.6194404     0.8742464     0.2391419
C           4.7025324     1.3525806    -0.1525236
H           4.6049194     2.4140330     0.0571488
C           1.2748193    -3.3431540     0.2909300
H           0.7485796    -4.1183667     0.8300350
C           2.3426542    -2.5970070     0.7531533
C           3.0905201    -2.6351304     2.0482278
H           2.6287274    -3.3615606     2.7220448
H           3.0900319    -1.6605945     2.5517682
H           4.1369916    -2.9265855     1.8985117
N           2.6562377    -1.7294528    -0.2611355
N           1.8745134    -1.9018350    -1.3654569
C           1.0333601    -2.8699923    -1.0183470
H           0.2794269    -3.1949405    -1.7242961
21
449_C9H9N3_4-5-17-18 (-75,) energy =    -512.6050566
C           5.9401111     0.7855895    -0.5673121
H           6.8049049     1.4366607    -0.6505993
C           5.9805956    -0.5110804    -1.0830256
H           6.8785434    -0.8822213    -1.5735205
N           4.9583062    -1.3711765    -1.0105487
C           3.8415704    -0.9407932    -0.4243674
C           3.6867781     0.3363403     0.1201260
H           2.7414666     0.6263695     0.5664668
C           4.7661806     1.2151957     0.0495807
H           4.6862447     2.2183432     0.4589156
C           1.2460521    -3.3229164     0.2853203
H           0.6521960    -4.0092224     0.8725758
C           2.3140968    -2.5675146     0.7323592
C           2.9627096    -2.4802347     2.0784022
H           2.4845226    -3.1860032     2.7627126
H           2.8785119    -1.4788626     2.5182057
H           4.0299750    -2.7272972     2.0297650
N           2.7533770    -1.8644958    -0.3609973
N           2.0298913    -2.1271081    -1.4850818
C           1.1187379    -3.0076966    -1.0859961
H           0.3981879    -3.3851840    -1.8004973
21
449_C9H9N3_4-5-17-18 (-60,) energy =    -512.6055444
C           5.9385805     0.7976773    -0.5896484
H           6.7916273     1.4630893    -0.6792141
C           5.9157563    -0.4182015    -1.2749803
H           6.7515395    -0.7123871    -1.9072709
N           4.9076728    -1.2937686    -1.2015840
C           3.8612615    -0.9580588    -0.4474042
C           3.7690753     0.2388726     0.2699052
H           2.8759376     0.4681702     0.8409344
C           4.8390425     1.1283693     0.2012536
H           4.8050028     2.0694507     0.7430271
C           1.2492163    -3.3243727     0.2522739
H           0.6236356    -3.9794573     0.8423008
C           2.2753042    -2.5265915     0.7205281
C           2.8186725    -2.3563242     2.1055360
H           2.4031694    -3.1305623     2.7562254
H           2.5620322    -1.3841146     2.5440985
H           3.9105987    -2.4472147     2.1277284
N           2.7924147    -1.8988350    -0.3883934
N           2.1506507    -2.2502299    -1.5386627
C           1.2188440    -3.1086502    -1.1442847
H           0.5531129    -3.5431155    -1.8792873
21
449_C9H9N3_4-5-17-18 (-45,) energy =    -512.6058435
C           5.9518761     0.7776261    -0.6353408
H           6.8028384     1.4428412    -0.7430718
C           5.8351839    -0.3595478    -1.4361430
H           6.5950360    -0.5915654    -2.1803882
N           4.8255908    -1.2308261    -1.3493398
C           3.8685306    -0.9738528    -0.4576632
C           3.8683027     0.1487504     0.3790152
H           3.0410109     0.3358443     1.0537539
C           4.9421058     1.0312292     0.2918820
H           4.9758435     1.9132302     0.9254165
C           1.2567371    -3.3454217     0.2302140
H           0.6140754    -3.9858125     0.8180940
C           2.2295586    -2.4940855     0.7143442
C           2.6718617    -2.2529250     2.1251232
H           2.3331211    -3.0802963     2.7549504
H           2.2558410    -1.3296705     2.5479093
H           3.7621776    -2.1899728     2.2076488
N           2.7969950    -1.9071106    -0.3972553
N           2.2402942    -2.3497977    -1.5614063
C           1.3077968    -3.2089664    -1.1759935
H           0.6997609    -3.7020061    -1.9239283
21
449_C9H9N3_4-5-17-18 (-30,) energy =    -512.6051722
C           5.9583476     0.7680801    -0.6790844
H           6.8071912     1.4328853    -0.8038299
C           5.7391117    -0.2817371    -1.5713991
H           6.4144926    -0.4445738    -2.4096958
N           4.7251564    -1.1454925    -1.4722246
C           3.8682877    -0.9812169    -0.4640490
C           3.9675723     0.0620808     0.4676093
H           3.2128586     0.2050030     1.2303386
C           5.0440000     0.9381934     0.3593935
H           5.1504142     1.7559277     1.0668592
C           1.2683002    -3.3728334     0.2132758
H           0.6152352    -4.0051585     0.7985057
C           2.1833396    -2.4664284     0.7055129
C           2.5288360    -2.1693368     2.1326301
H           2.1573606    -2.9818442     2.7633447
H           2.0712555    -1.2407324     2.4970004
H           3.6099239    -2.0886230     2.2884904
N           2.7868825    -1.9020626    -0.4050240
N           2.3138155    -2.4325653    -1.5711458
C           1.3916516    -3.3030034    -1.1936269
H           0.8432170    -3.8542755    -1.9470089
21
449_C9H9N3_4-5-17-18 (-15,) energy =    -512.6033309
C           5.9634707     0.7947853    -0.7191945
H           6.8002973     1.4708059    -0.8626487
C           5.6353713    -0.1527809    -1.6883616
H           6.2107458    -0.2229413    -2.6102115
N           4.6273386    -1.0198221    -1.5731618
C           3.8889535    -0.9798384    -0.4635097
C           4.0994537    -0.0368296     0.5554055
H           3.4423155     0.0337770     1.4099369
C           5.1649238     0.8488914     0.4215461
H           5.3517019     1.5863891     1.1973476
C           1.2915713    -3.3892956     0.2000946
H           0.6173568    -4.0048149     0.7793311
C           2.1516395    -2.4350367     0.6977941
C           2.3791024    -2.0807798     2.1356202
H           1.8938160    -2.8363080     2.7596434
H           1.9492226    -1.1092129     2.4105575
H           3.4424193    -2.0628332     2.3986447
N           2.8089737    -1.9058135    -0.4049544
N           2.4218550    -2.5186677    -1.5648654
C           1.5005222    -3.3914302    -1.1980134
H           1.0156689    -3.9982701    -1.9523714
21
449_C9H9N3_4-5-17-18 (0,) energy =    -512.6018207
C           5.9190729     0.8667230    -0.7792032
H           6.7042068     1.5941646    -0.9583558
C           5.4457322     0.0537110    -1.8082213
H           5.8588065     0.1359618    -2.8125754
N           4.4849513    -0.8581983    -1.6563322
C           3.9368964    -1.0094427    -0.4497033
C           4.3370227    -0.2441513     0.6583625
H           3.8953846    -0.3664091     1.6341234
C           5.3420510     0.7024474     0.4776133
H           5.6662194     1.3047747     1.3219340
C           1.3194897    -3.4161074     0.2078647
H           0.5819037    -3.9720225     0.7699087
C           2.1411931    -2.4293704     0.7062775
C           2.1713601    -1.9336171     2.1199689
H           1.4244366    -2.4899126     2.6928248
H           1.9201651    -0.8695140     2.2029272
H           3.1410930    -2.0928125     2.6064327
N           2.9157253    -2.0023362    -0.3664215
N           2.6057867    -2.6877694    -1.5105145
C           1.6516704    -3.5298788    -1.1604979
H           1.2319691    -4.1939164    -1.9057198
21
449_C9H9N3_4-5-17-18 (15,) energy =    -512.6033308
C           5.8343752     0.9237148    -0.7616595
H           6.5624055     1.7083893    -0.9408777
C           5.2209040     0.2611093    -1.8244061
H           5.4705221     0.5164797    -2.8531224
N           4.3119298    -0.7048629    -1.6767163
C           3.9671454    -1.0578216    -0.4379134
C           4.5547850    -0.4915259     0.7047837
H           4.3225123    -0.8451311     1.6987883
C           5.4902124     0.5240768     0.5281989
H           5.9575015     0.9814572     1.3960135
C           1.3440159    -3.4413806     0.2171995
H           0.5457309    -3.9328584     0.7558336
C           2.1372997    -2.4204857     0.6930640
C           2.0369120    -1.7386169     2.0233209
H           1.1016692    -2.0448754     2.5000324
H           2.0244694    -0.6468392     1.9337228
H           2.8521002    -2.0097499     2.7061651
N           3.0162279    -2.1127059    -0.3369924
N           2.7769411    -2.8731118    -1.4484785
C           1.7881459    -3.6784439    -1.1037692
H           1.4231422    -4.4049999    -1.8188072
21
449_C9H9N3_4-5-17-18 (30,) energy =    -512.6051722
C           5.6964984     1.1787618    -0.0675533
H           6.5234006     1.8779684    -0.1410771
C           4.6892896     1.3644114     0.8797962
H           4.7163743     2.2180407     1.5550590
N           3.6509135     0.5389465     1.0359912
C           3.5726256    -0.5175183     0.2264349
C           4.5051369    -0.7806412    -0.7872238
H           4.3699136    -1.6090205    -1.4708012
C           5.5915720     0.0797801    -0.9188088
H           6.3327161    -0.0976819    -1.6932338
C           1.0695113    -3.0610182     0.6776129
H           0.6472164    -4.0551668     0.7240750
C           2.3561564    -2.7372548     0.3022651
C           3.4766361    -3.6552590    -0.0799499
H           3.2331349    -4.6684154     0.2519906
H           4.4251273    -3.3666451     0.3854796
H           3.6396004    -3.6996101    -1.1643517
N           2.4408041    -1.3593152     0.4031723
N           1.2760283    -0.8052876     0.8519666
C           0.4523707    -1.8301715     0.9995146
H          -0.5618404    -1.6511524     1.3335713
21
449_C9H9N3_4-5-17-18 (45,) energy =    -512.6058435
C           5.7177663     1.1448145    -0.0885688
H           6.5553784     1.8309620    -0.1651330
C           4.8072941     1.2522070     0.9638441
H           4.9248387     2.0272810     1.7191927
N           3.7631675     0.4350739     1.1312738
C           3.5787505    -0.5193802     0.2190816
C           4.4122206    -0.7039444    -0.8906631
H           4.1901558    -1.4657637    -1.6289094
C           5.5099092     0.1410837    -1.0335619
H           6.1785652     0.0275939    -1.8823544
C           1.0790694    -3.0667225     0.6452435
H           0.6633929    -4.0630015     0.7031988
C           2.3868917    -2.7406364     0.3472410
C           3.5541971    -3.6362035     0.0653795
H           3.3303855    -4.6437699     0.4268890
H           4.4651562    -3.2920368     0.5666429
H           3.7781262    -3.7163267    -1.0059077
N           2.4509385    -1.3644004     0.4108819
N           1.2532466    -0.8020766     0.7432390
C           0.4296804    -1.8320352     0.8743457
H          -0.6074006    -1.6523755     1.1280926
21
449_C9H9N3_4-5-17-18 (60,) energy =    -512.6055444
C           5.7384658     1.1115587    -0.1222375
H           6.5872848     1.7836017    -0.2019132
C           4.9336062     1.1218447     1.0182263
H           5.1468213     1.8037838     1.8394259
N           3.8821127     0.3143416     1.1929730
C           3.5840454    -0.5232934     0.2000024
C           4.3098047    -0.6088163    -0.9923209
H           3.9971296    -1.2896699    -1.7765522
C           5.4166833     0.2228067    -1.1471488
H           6.0054797     0.1873343    -2.0594934
C           1.0922101    -3.0780691     0.6190724
H           0.6857288    -4.0766841     0.6975603
C           2.4141706    -2.7441831     0.3965660
C           3.6213959    -3.6147595     0.2316806
H           3.3676965    -4.6426823     0.5046200
H           4.4478379    -3.2893938     0.8736986
H           3.9944157    -3.6297964    -0.7998341
N           2.4549369    -1.3695823     0.3997001
N           1.2306838    -0.8077010     0.6093447
C           0.4126233    -1.8444520     0.7381923
H          -0.6418072    -1.6694857     0.9106730
21
449_C9H9N3_4-5-17-18 (75,) energy =    -512.6050566
C           5.7470974     1.0883660    -0.1165287
H           6.6032594     1.7529685    -0.1796896
C           5.0518042     0.9453176     1.0855767
H           5.3604670     1.4981270     1.9708844
N           3.9942661     0.1404897     1.2403657
C           3.5869422    -0.5414134     0.1703039
C           4.2017953    -0.4710110    -1.0820941
H           3.8047292    -1.0405609    -1.9157023
C           5.3112381     0.3607425    -1.2227929
H           5.8168672     0.4457799    -2.1805804
C           1.1075969    -3.1056775     0.6088463
H           0.7132918    -4.1048398     0.7302849
C           2.4360604    -2.7585993     0.4478594
C           3.6752606    -3.5973209     0.4150440
H           3.4146477    -4.6442575     0.5912741
H           4.3904580    -3.2924718     1.1883624
H           4.1929695    -3.5395635    -0.5503074
N           2.4511370    -1.3904649     0.3448610
N           1.2084814    -0.8390769     0.4328731
C           0.4010750    -1.8823455     0.5896962
H          -0.6650687    -1.7179774     0.6820144
21
449_C9H9N3_4-5-17-18 (90,) energy =    -512.6056607
C           5.7613538     1.0698771    -0.1494320
H           6.6152153     1.7400733    -0.1723634
C           5.1922834     0.6940489     1.0685543
H           5.5979915     1.0687828     2.0063865
N           4.1363819    -0.1216285     1.1734847
C           3.6214375    -0.5989185     0.0403006
C           4.1073665    -0.2889915    -1.2311590
H           3.6257717    -0.7034583    -2.1101228
C           5.2043090     0.5659633    -1.3238244
H           5.6121129     0.8349705    -2.2941348
C           1.1257105    -3.1092334     0.6392718
H           0.7273107    -4.0848731     0.8799408
C           2.4587122    -2.7788422     0.4824118
C           3.7040439    -3.5969240     0.6160764
H           3.4433963    -4.6387127     0.8203349
H           4.3345513    -3.2361433     1.4375149
H           4.3105774    -3.5741868    -0.2976376
N           2.4756496    -1.4461929     0.1606614
N           1.2299458    -0.8911124     0.1395741
C           0.4187784    -1.9062775     0.4167018
H          -0.6502774    -1.7371485     0.4464707
21
449_C9H9N3_4-5-17-18 (105,) energy =    -512.6080097
C           5.7640417     1.0598439    -0.1561775
H           6.6096037     1.7407314    -0.1526318
C           5.3250554     0.4754075     1.0321032
H           5.8229848     0.6957925     1.9744439
N           4.2794840    -0.3577688     1.1062669
C           3.6586338    -0.6583482    -0.0346869
C           4.0112545    -0.1326276    -1.2797923
H           3.4447269    -0.4096203    -2.1617047
C           5.0876864     0.7491605    -1.3360984
H           5.3933025     1.1837370    -2.2837110
C           1.1303271    -3.1048672     0.6483728
H           0.7126761    -4.0495118     0.9672655
C           2.4715814    -2.7953845     0.5320591
C           3.6986385    -3.6025016     0.8151647
H           3.4144268    -4.6110275     1.1269156
H           4.2971561    -3.1489152     1.6127714
H           4.3416626    -3.6915504    -0.0692965
N           2.5165548    -1.5085219     0.0575872
N           1.2744523    -0.9547532    -0.0820533
C           0.4436059    -1.9320644     0.2592087
H          -0.6244054    -1.7587823     0.2166257
21
449_C9H9N3_4-5-17-18 (120,) energy =    -512.6109956
C           5.7816447     1.0479873    -0.1861987
H           6.6303162     1.7248412    -0.1856803
C           5.4540954     0.3273363     0.9611509
H           6.0422724     0.4355739     1.8704664
N           4.4101138    -0.5083634     1.0394136
C           3.6806977    -0.6769048    -0.0636063
C           3.9163759    -0.0076569    -1.2689802
H           3.2649129    -0.1803477    -2.1176823
C           4.9889706     0.8764735    -1.3228299
H           5.2059028     1.4194889    -2.2384527
C           1.1386801    -3.1091589     0.6221735
H           0.7083951    -4.0381962     0.9688805
C           2.4820048    -2.7911764     0.5814631
C           3.6853799    -3.5832451     0.9839568
H           3.3771897    -4.5837347     1.2994011
H           4.2206294    -3.1024955     1.8085769
H           4.3942993    -3.6940714     0.1542202
N           2.5486686    -1.5317567     0.0359250
N           1.3130930    -1.0088266    -0.2317230
C           0.4694084    -1.9728491     0.1121793
H          -0.5946179    -1.8161426    -0.0130735
21
449_C9H9N3_4-5-17-18 (135,) energy =    -512.6136987
C           5.7951977     1.0396439    -0.2382217
H           6.6533056     1.7042168    -0.2510101
C           5.5642070     0.2054979     0.8529491
H           6.2384329     0.2103307     1.7073534
N           4.5158775    -0.6239043     0.9449480
C           3.6790623    -0.6676886    -0.0913463
C           3.8119998     0.1229523    -1.2400869
H           3.0786552     0.0471460    -2.0335704
C           4.8918095     0.9954966    -1.3033832
H           5.0310886     1.6286453    -2.1752474
C           1.1388977    -3.1100779     0.5765168
H           0.7027585    -4.0315772     0.9357547
C           2.4757330    -2.7665573     0.6170527
C           3.6506276    -3.5346115     1.1345538
H           3.3328783    -4.5475706     1.3975960
H           4.0856367    -3.0573039     2.0171207
H           4.4468822    -3.6111854     0.3851429
N           2.5568049    -1.5269314     0.0239770
N           1.3340718    -1.0503641    -0.3633569
C           0.4863576    -2.0148773    -0.0346809
H          -0.5687285    -1.8876645    -0.2417853
21
449_C9H9N3_4-5-17-18 (150,) energy =    -512.6156331
C           5.8184404     1.0137337    -0.2811599
H           6.6885731     1.6617944    -0.3106235
C           5.6689355     0.0759886     0.7364703
H           6.4205929    -0.0200353     1.5178544
N           4.6144158    -0.7437628     0.8426194
C           3.6781206    -0.6652848    -0.1023745
C           3.7241666     0.2370194    -1.1754331
H           2.9190663     0.2543115    -1.8986851
C           4.8165479     1.0911784    -1.2530229
H           4.8893412     1.8065722    -2.0675691
C           1.1506223    -3.1337644     0.5321322
H           0.7137966    -4.0523338     0.8978875
C           2.4725345    -2.7547067     0.6532765
C           3.6129536    -3.4910802     1.2822804
H           3.2813095    -4.4993918     1.5475827
H           3.9748502    -2.9861943     2.1819099
H           4.4671818    -3.5767410     0.6022793
N           2.5631230    -1.5282358     0.0271895
N           1.3603080    -1.1088364    -0.4718175
C           0.5152535    -2.0814775    -0.1657644
H          -0.5250430    -1.9915056    -0.4520143
21
449_C9H9N3_4-5-17-18 (165,) energy =    -512.6165915
C           5.8459157     0.9941725    -0.3255777
H           6.7247152     1.6296146    -0.3674060
C           5.7716898    -0.0535669     0.5864471
H           6.5928182    -0.2522459     1.2728934
N           4.7147917    -0.8694111     0.6969877
C           3.6886366    -0.6665660    -0.1280937
C           3.6533759     0.3557967    -1.0902930
H           2.7840601     0.4681320    -1.7241471
C           4.7554375     1.1954973    -1.1774102
H           4.7658168     1.9992228    -1.9085873
C           1.1682152    -3.1507867     0.4913012
H           0.7264250    -4.0600087     0.8739852
C           2.4721599    -2.7391557     0.6786325
C           3.5682044    -3.4351561     1.4223729
H           3.2016200    -4.4127944     1.7504036
H           3.8945840    -2.8655523     2.2966005
H           4.4544468    -3.5853564     0.7983641
N           2.5797072    -1.5363180     0.0043310
N           1.4035496    -1.1731196    -0.5934540
C           0.5596964    -2.1479467    -0.2967259
H          -0.4603299    -2.0961557    -0.6560796
21
449_C9H9N3_4-5-17-18 (180,) energy =    -512.6168083
C           5.8653604     0.9718348    -0.3602100
H           6.7474511     1.6022881    -0.4073633
C           5.8603002    -0.1843370     0.4127516
H           6.7406445    -0.4757358     0.9829137
N           4.8069079    -1.0056041     0.5151245
C           3.7061644    -0.6893742    -0.1653093
C           3.5956049     0.4517117    -0.9775023
H           2.6716799     0.6501166    -1.5033009
C           4.7006555     1.2869133    -1.0670981
H           4.6535865     2.1791313    -1.6855539
C           1.1907334    -3.1836239     0.4433637
H           0.7391455    -4.0766655     0.8518216
C           2.4735008    -2.7376542     0.6880506
C           3.5191588    -3.3673775     1.5535163
H           3.1049559    -4.2827204     1.9877777
H           3.8356548    -2.7035154     2.3629127
H           4.4204415    -3.6203161     0.9881903
N           2.6040960    -1.5697297    -0.0441034
N           1.4620249    -1.2654709    -0.7340989
C           0.6174998    -2.2388252    -0.4371030
H          -0.3767608    -2.2295570    -0.8656373
