31
204_C14H14O2S_6-14-23-24 (-165,) energy =   -1090.4977858
C          -0.5096389    -0.1674522     1.5170367
H          -0.5091560    -0.7738807     2.4162098
C          -1.5145008     0.7683531     1.2767898
H          -2.3128540     0.9061709     1.9999871
C          -1.4813097     1.5180441     0.1024491
H          -2.2564160     2.2524261    -0.0996181
C           0.5147525    -0.3455636     0.5840353
C          -0.4537443     1.3284484    -0.8225942
H          -0.4420331     1.9169865    -1.7364737
C           0.5689711     0.3927283    -0.6171640
C           1.6454071     0.2237984    -1.6637045
H           1.5155158     0.9621386    -2.4602663
H           1.6154452    -0.7783558    -2.0995897
H           2.6480672     0.3534470    -1.2419190
S           1.7099329    -1.6505228     0.9735394
O           1.2296195    -2.3419035     2.1844154
O           1.9380029    -2.4319098    -0.2561998
C           5.5824643     0.5247028     2.1428682
H           6.5020478     1.0294412     2.4260657
C           4.3790443     1.2251803     2.1080315
H           4.3431359     2.2795350     2.3659944
C           3.2094921     0.5597490     1.7414052
H           2.2679258     1.0973688     1.7173897
C           3.2505547    -0.7955040     1.4048922
C           4.4536422    -1.5317228     1.4477983
C           4.5414533    -3.0072068     1.1338435
H           5.5450899    -3.3803024     1.3576147
H           4.3158346    -3.2056726     0.0822186
H           3.8210326    -3.5831921     1.7239268
C           5.6085860    -0.8323152     1.8209025
H           6.5500436    -1.3742820     1.8614981
31
204_C14H14O2S_6-14-23-24 (-150,) energy =   -1090.4973026
C          -0.5724557    -0.0503758     1.5489532
H          -0.6335142    -0.5794507     2.4938872
C          -1.5219964     0.9065337     1.1930997
H          -2.3391265     1.1388703     1.8697034
C          -1.4097799     1.5549558    -0.0353002
H          -2.1410521     2.3040260    -0.3269013
C           0.4762904    -0.3495985     0.6763129
C          -0.3590296     1.2439792    -0.8996286
H          -0.2847835     1.7534346    -1.8570871
C           0.6089751     0.2838724    -0.5769695
C           1.7156933    -0.0202878    -1.5589900
H           1.6331512     0.6296327    -2.4348838
H           1.6759561    -1.0628610    -1.8859282
H           2.7054007     0.1359853    -1.1150080
S           1.5984859    -1.6673105     1.2156643
O           1.0937886    -2.1746607     2.5040556
O           1.7668669    -2.6019379     0.0884008
C           5.5258066     0.5167929     2.1661392
H           6.4515443     1.0334931     2.4041606
C           4.2990528     1.1537086     2.3457385
H           4.2507523     2.1688077     2.7286776
C           3.1256300     0.4719708     2.0326651
H           2.1658205     0.9584787     2.1716127
C           3.1791999    -0.8337641     1.5336300
C           4.4061421    -1.5080596     1.3612480
C           4.5372477    -2.9325776     0.8722254
H           5.5817415    -3.2517138     0.9375539
H           4.1999602    -3.0354443    -0.1626476
H           3.9295946    -3.6237238     1.4641514
C           5.5674632    -0.7912011     1.6869290
H           6.5283024    -1.2838079     1.5614886
31
204_C14H14O2S_6-14-23-24 (-135,) energy =   -1090.4969644
C          -0.5799186     0.0456123     1.5481948
H          -0.6773598    -0.4130270     2.5263380
C          -1.4878794     1.0073115     1.1068879
H          -2.3085410     1.3139924     1.7487514
C          -1.3299831     1.5643687    -0.1606368
H          -2.0282417     2.3161264    -0.5186449
C           0.4741142    -0.3494785     0.7213092
C          -0.2758969     1.1566412    -0.9793011
H          -0.1660718     1.5941262    -1.9684304
C           0.6505916     0.1887674    -0.5700402
C           1.7602942    -0.2266973    -1.5065694
H           1.7117608     0.3532898    -2.4326201
H           1.6895902    -1.2900713    -1.7521741
H           2.7484148    -0.0657345    -1.0603243
S           1.5481737    -1.6545772     1.3791804
O           1.0301643    -2.0096412     2.7116981
O           1.6809354    -2.6985238     0.3479338
C           5.4945495     0.5433604     2.2024890
H           6.4192926     1.0721318     2.4167796
C           4.2690711     1.0845897     2.5903239
H           4.2216429     2.0354330     3.1127699
C           3.0996947     0.3874648     2.3042757
H           2.1400132     0.7953294     2.6055586
C           3.1505363    -0.8364502     1.6261502
C           4.3767966    -1.4136897     1.2366856
C           4.5258533    -2.7476448     0.5397348
H           5.5876785    -2.9765378     0.4079040
H           4.0414393    -2.7508935    -0.4402099
H           4.0648953    -3.5595136     1.1090165
C           5.5367545    -0.6830095     1.5438070
H           6.4979917    -1.1009666     1.2559383
31
204_C14H14O2S_6-14-23-24 (-120,) energy =   -1090.4965627
C          -0.5626745     0.1482173     1.5249915
H          -0.6802049    -0.2320063     2.5338733
C          -1.4360316     1.1036524     1.0076792
H          -2.2465608     1.4859263     1.6212697
C          -1.2581453     1.5557830    -0.2982797
H          -1.9297012     2.3008236    -0.7163394
C           0.4791455    -0.3468400     0.7364653
C          -0.2176741     1.0497581    -1.0779898
H          -0.0908460     1.4046488    -2.0976970
C           0.6749954     0.0859221    -0.5910389
C           1.7735660    -0.4304897    -1.4887570
H           1.7244413     0.0563363    -2.4669429
H           1.6917603    -1.5119014    -1.6293782
H           2.7652027    -0.2319207    -1.0659766
S           1.5061938    -1.6290969     1.5109963
O           0.9531703    -1.8564433     2.8571748
O           1.6301426    -2.7547295     0.5694849
C           5.4762517     0.5491062     2.2632885
H           6.4029217     1.0826321     2.4564964
C           4.2809743     0.9864188     2.8340439
H           4.2591144     1.8589665     3.4801515
C           3.1098224     0.2844440     2.5708238
H           2.1732746     0.6053549     3.0154734
C           3.1268069    -0.8414570     1.7377264
C           4.3235692    -1.3143888     1.1599954
C           4.4523942    -2.5518363     0.2987171
H           5.5032801    -2.7061836     0.0356873
H           3.8716801    -2.4753380    -0.6240410
H           4.0868296    -3.4432490     0.8142771
C           5.4871059    -0.5809286     1.4498582
H           6.4273110    -0.9214027     1.0237295
31
204_C14H14O2S_6-14-23-24 (-105,) energy =   -1090.4952197
C           0.9719054    -1.1150774     1.0664797
H           1.8596249    -1.4569838     1.5864982
C          -0.2592252    -1.7162329     1.3308029
H          -0.3226525    -2.5225750     2.0556328
C          -1.3958463    -1.2720794     0.6603699
H          -2.3611740    -1.7312606     0.8551322
C           1.0593459    -0.0807321     0.1329053
C          -1.2981489    -0.2303087    -0.2629708
H          -2.1915589     0.1146237    -0.7773594
C          -0.0796214     0.3954347    -0.5518573
C          -0.0318748     1.5246930    -1.5544734
H          -1.0423490     1.7821183    -1.8845131
H           0.5658257     1.2506848    -2.4291688
H           0.4304220     2.4183640    -1.1229083
S           2.6560934     0.7173785    -0.1924762
O           2.9258722     0.5796864    -1.6359996
O           2.6347199     2.0628037     0.4086886
C           5.9054447    -1.9430696     1.6480142
H           6.6930814    -2.5739925     2.0510265
C           5.2760816    -2.2849122     0.4510276
H           5.5653751    -3.1782279    -0.0945060
C           4.2776271    -1.4554190    -0.0495444
H           3.7996001    -1.6808102    -0.9967156
C           3.8936931    -0.3063665     0.6538074
C           4.5218350     0.0696262     1.8591661
C           4.1790576     1.2974084     2.6734102
H           4.7345357     1.2806466     3.6159473
H           3.1110317     1.3541207     2.9017957
H           4.4249658     2.2166476     2.1359942
C           5.5317407    -0.7865049     2.3286610
H           6.0361987    -0.5267417     3.2557428
31
204_C14H14O2S_6-14-23-24 (-90,) energy =   -1090.4970242
C           1.0324257    -1.1576896     1.0098877
H           1.9361908    -1.5781440     1.4364196
C          -0.2123298    -1.6653033     1.3848319
H          -0.2704679    -2.4766798     2.1044400
C          -1.3682341    -1.1246659     0.8281142
H          -2.3441264    -1.5102121     1.1102928
C           1.1117277    -0.1158849     0.0841608
C          -1.2761353    -0.0838442    -0.0972313
H          -2.1837117     0.3315743    -0.5278765
C          -0.0448538     0.4495794    -0.4953157
C           0.0015757     1.5748805    -1.5021786
H          -1.0097233     1.8445518    -1.8193303
H           0.5807614     1.2880231    -2.3857376
H           0.4854149     2.4618551    -1.0810912
S           2.7290919     0.5381878    -0.4110431
O           2.9201439     0.1939266    -1.8329749
O           2.8116649     1.9511658     0.0011093
C           5.9924384    -1.8959069     1.6930433
H           6.7880069    -2.4669750     2.1640848
C           5.5217795    -2.2567979     0.4313489
H           5.9450084    -3.1063788    -0.0962858
C           4.5060805    -1.5065074    -0.1562073
H           4.1395849    -1.7440366    -1.1487289
C           3.9574386    -0.4144704     0.5243495
C           4.4219032    -0.0201920     1.7968765
C           3.8770409     1.1508682     2.5826848
H           4.2885359     1.1419369     3.5964480
H           2.7853754     1.1245545     2.6557330
H           4.1312411     2.1011222     2.1060770
C           5.4472310    -0.7970967     2.3562437
H           5.8257636    -0.5237068     3.3378668
31
204_C14H14O2S_6-14-23-24 (-75,) energy =   -1090.4978874
C           1.0735168    -1.2140090     0.9449022
H           1.9770612    -1.7128186     1.2776731
C          -0.1681808    -1.6472604     1.4104581
H          -0.2245418    -2.4785351     2.1071193
C          -1.3248163    -1.0090481     0.9697288
H          -2.2987153    -1.3360169     1.3235336
C           1.1516352    -0.1426855     0.0524354
C          -1.2358361     0.0494822     0.0650353
H          -2.1437891     0.5362630    -0.2819436
C          -0.0063699     0.5103343    -0.4214983
C           0.0306436     1.6502012    -1.4124419
H          -0.9852913     1.9308910    -1.7046295
H           0.5853057     1.3718344    -2.3145920
H           0.5325444     2.5263454    -0.9913161
S           2.7655358     0.3873827    -0.5824606
O           2.8932970    -0.1284887    -1.9583770
O           2.9023074     1.8366325    -0.3442744
C           6.0350349    -1.7997126     1.7650395
H           6.8269874    -2.3151330     2.3017486
C           5.7286578    -2.1590411     0.4538914
H           6.2758113    -2.9527752    -0.0461037
C           4.7084909    -1.4864332    -0.2166340
H           4.4496909    -1.7349109    -1.2400142
C           4.0073153    -0.4634110     0.4264821
C           4.3021138    -0.0723020     1.7499574
C           3.5872162     1.0401549     2.4809754
H           3.9346798     1.0940171     3.5167891
H           2.5024300     0.8892406     2.4948509
H           3.7629188     2.0043332     1.9964523
C           5.3288745    -0.7742849     2.3955640
H           5.5811801    -0.5004608     3.4168567
31
204_C14H14O2S_6-14-23-24 (-60,) energy =   -1090.4965444
C           1.1221324    -1.4045460     0.7312731
H           1.9936093    -2.0312780     0.8906663
C          -0.1010110    -1.7628182     1.2930572
H          -0.1795938    -2.6666290     1.8900089
C          -1.2148994    -0.9543055     1.0724809
H          -2.1772709    -1.2176374     1.5027175
C           1.2346479    -0.2363247    -0.0298611
C          -1.0984488     0.1917068     0.2880676
H          -1.9760307     0.8076365     0.1090468
C           0.1174930     0.5837386    -0.2918359
C           0.1524149     1.8238978    -1.1553833
H          -0.8584707     2.2273732    -1.2660849
H           0.5469287     1.6097674    -2.1538500
H           0.7983021     2.5949342    -0.7278094
S           2.8413683     0.1121653    -0.7960741
O           2.9254112    -0.6651148    -2.0452366
O           3.0301426     1.5748154    -0.8442891
C           6.0669087    -1.6785832     1.9248859
H           6.8424637    -2.1076450     2.5536170
C           5.9238410    -2.0969708     0.6033310
H           6.5821139    -2.8538622     0.1871143
C           4.9184745    -1.5384686    -0.1845865
H           4.7710654    -1.8505264    -1.2128498
C           4.0797403    -0.5569875     0.3481735
C           4.2029091    -0.1126657     1.6814410
C           3.3356100     0.9625004     2.2936127
H           3.7378441     1.2650295     3.2647247
H           2.3090577     0.6120396     2.4514749
H           3.2815898     1.8418337     1.6461195
C           5.2169707    -0.7028482     2.4473737
H           5.3434213    -0.3788504     3.4773795
31
204_C14H14O2S_6-14-23-24 (-45,) energy =   -1090.4936706
C           0.9611255    -1.5631332     0.5057589
H           1.7385477    -2.3203024     0.4687716
C          -0.2339522    -1.8256458     1.1672005
H          -0.3893990    -2.7847815     1.6521571
C          -1.2269825    -0.8458965     1.1856201
H          -2.1697593    -1.0303834     1.6933848
C           1.1743897    -0.3248771    -0.1131464
C          -1.0165657     0.3708952     0.5417956
H          -1.8035929     1.1205419     0.5500799
C           0.1800183     0.6741395    -0.1298873
C           0.3002080     2.0186115    -0.8117567
H          -0.6374967     2.5712466    -0.6992224
H           0.5197825     1.9172118    -1.8775531
H           1.1122880     2.6188225    -0.3922075
S           2.7621780    -0.1736746    -0.9748997
O           2.8084514    -1.2291309    -2.0010001
O           2.9562982     1.2340923    -1.3689358
C           6.0579919    -1.4108852     1.9739461
H           6.8446076    -1.7237759     2.6552223
C           6.0323406    -1.8850744     0.6634615
H           6.7939917    -2.5731148     0.3084856
C           5.0077141    -1.4809149    -0.1896132
H           4.9414415    -1.8617202    -1.2029785
C           4.0347788    -0.5832124     0.2596197
C           4.0378406    -0.0878344     1.5787568
C           3.0428915     0.9192985     2.1088221
H           3.4381307     1.3955742     3.0110446
H           2.0866967     0.4528964     2.3700918
H           2.8387020     1.7035463     1.3741063
C           5.0739108    -0.5270884     2.4150996
H           5.1083274    -0.1537153     3.4356535
31
204_C14H14O2S_6-14-23-24 (-30,) energy =   -1090.4898647
C           0.7077418    -1.6444923     0.4668651
H           1.3763820    -2.4913435     0.3500084
C          -0.5019192    -1.7942887     1.1376299
H          -0.7752837    -2.7560156     1.5614757
C          -1.3584570    -0.6981827     1.2414039
H          -2.3107386    -0.7932706     1.7561015
C           1.0704045    -0.4049909    -0.0756126
C          -1.0005969     0.5225373     0.6737011
H          -1.6844437     1.3640513     0.7485366
C           0.2164227     0.7147144    -0.0014390
C           0.4992842     2.0773846    -0.5936944
H          -0.3173713     2.7617404    -0.3447005
H           0.5983728     2.0290893    -1.6809639
H           1.4364999     2.5045774    -0.2264859
S           2.6627489    -0.4125486    -0.9390757
O           2.6888207    -1.6370864    -1.7578719
O           2.8562130     0.8967583    -1.5876528
C           6.1766151    -1.1586442     1.9359167
H           7.0246998    -1.3609833     2.5843377
C           6.1879206    -1.5788369     0.6070322
H           7.0401796    -2.1160828     0.2014593
C           5.0832978    -1.3202254    -0.1988789
H           5.0546068    -1.6785011    -1.2221074
C           3.9835856    -0.6158343     0.3072294
C           3.9489579    -0.1786364     1.6461036
C           2.8302202     0.6247932     2.2707159
H           3.1652197     1.0441123     3.2240463
H           1.9413729     0.0171839     2.4683476
H           2.5222897     1.4587014     1.6333144
C           5.0721820    -0.4728820     2.4355264
H           5.0734711    -0.1415879     3.4709759
31
204_C14H14O2S_6-14-23-24 (-15,) energy =   -1090.4877942
C           0.4209221    -1.7713402     0.4125638
H           0.9638631    -2.7007175     0.2799138
C          -0.8192634    -1.7551654     1.0455480
H          -1.2460323    -2.6765018     1.4306840
C          -1.5056567    -0.5472351     1.1635379
H          -2.4765676    -0.5146028     1.6504737
C           0.9748157    -0.5851421    -0.0821375
C          -0.9533282     0.6243750     0.6480232
H          -1.5046172     1.5570618     0.7358373
C           0.2963058     0.6480975     0.0098820
C           0.8055309     1.9652639    -0.5320209
H           0.1536284     2.7783299    -0.1984953
H           0.8291465     1.9584480    -1.6249765
H           1.8273901     2.1863453    -0.2114516
S           2.5650840    -0.7866817    -0.9237621
O           2.5766319    -2.1617049    -1.4552988
O           2.7446077     0.3420132    -1.8539794
C           6.3280971    -0.7833623     1.7233351
H           7.2481333    -0.7997404     2.3010723
C           6.3142766    -1.2282927     0.4024180
H           7.2190320    -1.5997863    -0.0695552
C           5.1210133    -1.2031788    -0.3107786
H           5.0921205    -1.5708976    -1.3310063
C           3.9434250    -0.7211071     0.2792322
C           3.9314010    -0.2678746     1.6130449
C           2.7279849     0.2697065     2.3559764
H           3.0275838     0.5822124     3.3604922
H           1.9354963    -0.4768630     2.4619023
H           2.2889583     1.1400654     1.8601677
C           5.1532299    -0.3184136     2.3064331
H           5.1704404     0.0232841     3.3382190
31
204_C14H14O2S_6-14-23-24 (0,) energy =   -1090.4881234
C           0.2395609    -1.8324485     0.4137525
H           0.6838255    -2.8152331     0.3023241
C          -1.0240375    -1.6721273     0.9789844
H          -1.5758150    -2.5387744     1.3308775
C          -1.5695661    -0.3931070     1.0775090
H          -2.5544143    -0.2514485     1.5143676
C           0.9486469    -0.7158903    -0.0375575
C          -0.8575778     0.7114559     0.6089070
H          -1.2979703     1.7025500     0.6830649
C           0.4152631     0.5876439     0.0346783
C           1.1218669     1.8273525    -0.4654840
H           0.5762271     2.7215568    -0.1496846
H           1.1944449     1.8235004    -1.5563428
H           2.1480995     1.9030662    -0.0919249
S           2.5344709    -1.0724309    -0.8309327
O           2.5431432    -2.5211381    -1.1060198
O           2.7039163    -0.1328770    -1.9533676
C           6.3641810    -0.4013747     1.6233181
H           7.3025978    -0.2497442     2.1494733
C           6.3579841    -0.8436548     0.3011217
H           7.2875763    -1.0431468    -0.2236139
C           5.1427255    -1.0252600    -0.3483900
H           5.1276259    -1.3586020    -1.3809546
C           3.9307567    -0.7776051     0.3138614
C           3.9105718    -0.3348175     1.6510092
C           2.6734784    -0.0736384     2.4832086
H           2.9666991     0.1404874     3.5150043
H           1.9961026    -0.9318379     2.5007607
H           2.0967881     0.7829161     2.1223673
C           5.1589576    -0.1582722     2.2742213
H           5.1711299     0.1771402     3.3081341
31
204_C14H14O2S_6-14-23-24 (15,) energy =   -1090.4904581
C           0.1304503    -1.8607726     0.4587443
H           0.4983787    -2.8780394     0.3845040
C          -1.1318728    -1.5834784     0.9809884
H          -1.7643606    -2.3938672     1.3311516
C          -1.5707537    -0.2619512     1.0433163
H          -2.5519380    -0.0301424     1.4487774
C           0.9408838    -0.8163347     0.0094520
C          -0.7554483     0.7710415     0.5786289
H          -1.1127532     1.7966993     0.6246801
C           0.5160825     0.5280090     0.0420121
C           1.3483658     1.6851320    -0.4605369
H           0.8507031     2.6332431    -0.2369801
H           1.5079609     1.6132686    -1.5397437
H           2.3423906     1.7079314     0.0001726
S           2.5098863    -1.3077038    -0.7435137
O           2.5025704    -2.7820472    -0.7934204
O           2.6659429    -0.5503828    -1.9981406
C           6.3075783    -0.1096020     1.5572025
H           7.2323505     0.1727091     2.0527913
C           6.3134904    -0.4997551     0.2188995
H           7.2386853    -0.5242758    -0.3492052
C           5.1137896    -0.8437732    -0.3943117
H           5.0982972    -1.1105468    -1.4458118
C           3.9120486    -0.8307129     0.3278775
C           3.8799027    -0.4419850     1.6820734
C           2.6553777    -0.4411610     2.5718254
H           2.9592892    -0.2884019     3.6114745
H           2.1093400    -1.3872392     2.5198604
H           1.9467413     0.3522081     2.3154996
C           5.1087890    -0.0853034     2.2637998
H           5.1130259     0.2116113     3.3095245
31
204_C14H14O2S_6-14-23-24 (30,) energy =   -1090.4940195
C           0.0654645    -1.7973061     0.5321220
H           0.3609059    -2.8404688     0.5108965
C          -1.1814331    -1.4062447     1.0163414
H          -1.8783618    -2.1532950     1.3845734
C          -1.5208570    -0.0541422     1.0207460
H          -2.4884275     0.2660688     1.3977596
C           0.9594693    -0.8349837     0.0593547
C          -0.6229103     0.8956900     0.5320739
H          -0.9036765     1.9458814     0.5298085
C           0.6346261     0.5369176     0.0278736
C           1.5604021     1.6050336    -0.5067289
H           1.0777183     2.5851290    -0.4560257
H           1.8398050     1.4005360    -1.5437415
H           2.4921405     1.6596400     0.0686091
S           2.5035483    -1.4719441    -0.6380003
O           2.4586187    -2.9368298    -0.4681305
O           2.6617171    -0.9070438    -1.9905378
C           6.2075498     0.1553836     1.5439857
H           7.0997182     0.5490889     2.0232384
C           6.2160816    -0.1560020     0.1852824
H           7.1103429    -0.0074135    -0.4127561
C           5.0558784    -0.6429454    -0.4096761
H           5.0263649    -0.8455885    -1.4747671
C           3.9027325    -0.8555157     0.3554092
C           3.8689746    -0.5521327     1.7312030
C           2.6896185    -0.8018893     2.6452201
H           3.0177882    -0.7640244     3.6882077
H           2.2418982    -1.7838811     2.4702004
H           1.8975263    -0.0561975     2.5193380
C           5.0501196    -0.0422329     2.2934262
H           5.0547242     0.1923148     3.3549902
31
204_C14H14O2S_6-14-23-24 (45,) energy =   -1090.4976870
C           0.0356096    -1.7182456     0.6197775
H           0.2929041    -2.7700552     0.6775458
C          -1.1987433    -1.2503224     1.0664862
H          -1.9240229    -1.9441855     1.4812495
C          -1.4885515     0.1101438     0.9747917
H          -2.4452432     0.4901328     1.3229414
C           0.9670596    -0.8252307     0.0861872
C          -0.5544359     0.9901965     0.4273918
H          -0.7950197     2.0474794     0.3496479
C           0.6906409     0.5515099    -0.0432503
C           1.6488488     1.5443839    -0.6585955
H           1.2003207     2.5417233    -0.6772760
H           1.9089354     1.2559779    -1.6810837
H           2.5871501     1.6083035    -0.0961505
S           2.4934617    -1.5662945    -0.5503800
O           2.4311079    -3.0027227    -0.2175034
O           2.6533337    -1.1516600    -1.9558556
C           6.1154124     0.3075059     1.5579652
H           6.9826922     0.7573939     2.0335438
C           6.0832586     0.1323299     0.1755504
H           6.9205607     0.4433390    -0.4422525
C           4.9560975    -0.4346655    -0.4147818
H           4.8895946    -0.5531117    -1.4907961
C           3.8823103    -0.8504408     0.3781642
C           3.8907868    -0.6891229     1.7783529
C           2.7849539    -1.1609405     2.6944747
H           3.1405023    -1.1815493     3.7288313
H           2.4503096    -2.1675275     2.4279414
H           1.9094809    -0.5036310     2.6564775
C           5.0335110    -0.0994312     2.3377072
H           5.0721889     0.0309596     3.4163449
31
204_C14H14O2S_6-14-23-24 (60,) energy =   -1090.4999436
C           0.0551889    -1.6495373     0.7551059
H           0.3089584    -2.6914281     0.9158624
C          -1.1720140    -1.1341746     1.1686290
H          -1.8918000    -1.7787760     1.6645243
C          -1.4610594     0.2094788     0.9374846
H          -2.4121492     0.6269392     1.2568461
C           0.9810879    -0.8220117     0.1151277
C          -0.5331207     1.0234687     0.2874070
H          -0.7730388     2.0674251     0.1020967
C           0.7052688     0.5356046    -0.1513163
C           1.6520677     1.4606865    -0.8788513
H           1.2025001     2.4517515    -0.9876502
H           1.8945467     1.0724209    -1.8719433
H           2.5995305     1.5784757    -0.3411412
S           2.5051258    -1.6297605    -0.4455133
O           2.4235501    -3.0400164    -0.0216292
O           2.6957206    -1.3069710    -1.8710283
C           6.0663825     0.3502468     1.6623609
H           6.9202933     0.8181010     2.1448194
C           5.9587951     0.3480322     0.2728923
H           6.7246094     0.8100752    -0.3431834
C           4.8522245    -0.2521077    -0.3251766
H           4.7348400    -0.2643618    -1.4032025
C           3.8699335    -0.8545085     0.4654240
C           3.9600768    -0.8778544     1.8728078
C           2.9494419    -1.5481258     2.7733544
H           3.3198064    -1.5736398     3.8021698
H           2.7501316    -2.5727704     2.4479348
H           1.9915017    -1.0158464     2.7760790
C           5.0799410    -0.2552226     2.4409199
H           5.1793144    -0.2575278     3.5234646
31
204_C14H14O2S_6-14-23-24 (75,) energy =   -1090.5000316
C          -0.0095144    -1.5186073     0.8499639
H           0.2399362    -2.5441204     1.0988163
C          -1.2283861    -0.9619863     1.2336430
H          -1.9413303    -1.5542937     1.7996560
C          -1.5182106     0.3539406     0.8795473
H          -2.4629662     0.8044811     1.1715629
C           0.9094254    -0.7613321     0.1176063
C          -0.5982394     1.0973318     0.1400832
H          -0.8394538     2.1196318    -0.1399384
C           0.6331953     0.5674822    -0.2689959
C           1.5683024     1.4245596    -1.0884989
H           1.1078804     2.3953941    -1.2927616
H           1.8140963     0.9430674    -2.0386569
H           2.5137148     1.6059604    -0.5649245
S           2.4275103    -1.6315142    -0.3651063
O           2.3122461    -3.0159939     0.1250709
O           2.6542346    -1.3817780    -1.7998898
C           6.0158305     0.3438014     1.7004877
H           6.8828255     0.7989306     2.1716893
C           5.7896168     0.5105636     0.3357473
H           6.4772424     1.0893012    -0.2739519
C           4.6715448    -0.0828292    -0.2477240
H           4.4826887     0.0074799    -1.3114869
C           3.7832241    -0.8271441     0.5340193
C           4.0032541    -1.0330812     1.9126449
C           3.1012416    -1.8565486     2.8015176
H           3.4490874    -1.8091202     3.8374355
H           3.0805172    -2.9019907     2.4825191
H           2.0672895    -1.4953349     2.7765700
C           5.1336342    -0.4173976     2.4673222
H           5.3257124    -0.5498909     3.5290162
31
204_C14H14O2S_6-14-23-24 (90,) energy =   -1090.4975264
C          -0.0792330    -1.3265890     0.9608190
H           0.1731059    -2.3272711     1.2934821
C          -1.2887580    -0.7374470     1.3230999
H          -1.9855423    -1.2744324     1.9600169
C          -1.5912117     0.5384413     0.8530606
H          -2.5299751     1.0142158     1.1235283
C           0.8217465    -0.6437567     0.1365662
C          -0.6916220     1.2071871     0.0234692
H          -0.9426029     2.1975451    -0.3478845
C           0.5330701     0.6443367    -0.3629149
C           1.4438520     1.4378116    -1.2693349
H           0.9330201     2.3396471    -1.6186223
H           1.7570313     0.8496195    -2.1348834
H           2.3513974     1.7549013    -0.7425014
S           2.3327393    -1.5686866    -0.2711378
O           2.1687063    -2.9328822     0.2563680
O           2.6062010    -1.3697266    -1.7057623
C           5.9656594     0.3795998     1.7490560
H           6.8504166     0.8214905     2.1993131
C           5.5991738     0.7118979     0.4466174
H           6.1962786     1.4046643    -0.1390699
C           4.4660331     0.1252261    -0.1123037
H           4.1963664     0.3205710    -1.1431881
C           3.6839294    -0.7605067     0.6376005
C           4.0576888    -1.1436991     1.9442254
C           3.2875626    -2.1177818     2.8066261
H           3.7054740    -2.1301601     3.8176014
H           3.3232481    -3.1297269     2.3961034
H           2.2295467    -1.8454796     2.8811188
C           5.2047273    -0.5357609     2.4747344
H           5.5075338    -0.7996500     3.4847970
31
204_C14H14O2S_6-14-23-24 (105,) energy =   -1090.4938281
C          -0.0450736    -1.0697720     1.1081794
H           0.2234975    -2.0077108     1.5806976
C          -1.2187581    -0.4118391     1.4643780
H          -1.8611818    -0.8250951     2.2364180
C          -1.5602953     0.7698310     0.8097428
H          -2.4748452     1.2968047     1.0679481
C           0.7909315    -0.5501707     0.1114227
C          -0.7332618     1.2714548    -0.1926942
H          -1.0180233     2.1840631    -0.7103312
C           0.4598479     0.6381614    -0.5749565
C           1.2793975     1.2770236    -1.6739359
H           0.6573898     1.9740718    -2.2434090
H           1.6995348     0.5361491    -2.3543743
H           2.1110218     1.8576740    -1.2552869
S           2.2686714    -1.5659263    -0.2193906
O           1.9990778    -2.9043797     0.3294910
O           2.6225449    -1.4196483    -1.6415665
C           5.8265341     0.4147432     1.9134655
H           6.6855905     0.8813445     2.3878493