19
149_C6H12O_0-3-16-12 (-165,) energy =    -311.0472775
C           0.8859791    -1.1161440    -0.8049830
H           0.7287412    -1.3015773    -1.8754939
H           0.4619849    -0.1350644    -0.5429587
C           2.3146978    -1.3628392    -0.2561039
C           3.1626571    -2.1555386    -1.2569431
H           3.4852036    -1.5230789    -2.0937677
H           2.5811753    -2.9874175    -1.6703698
H           4.0590479    -2.5755913    -0.7875579
C           1.5775747    -2.2863117     0.7502014
O           0.3364977    -2.1707437     0.0191265
H           1.4913857    -1.8742686     1.7666575
H           1.9201529    -3.3273663     0.8130041
C           4.5338418    -0.2071563     0.5129484
H           4.9192812     0.7271509     0.9361609
H           5.0700745    -0.3911870    -0.4232651
H           4.7930523    -1.0141495     1.2098880
C           3.0196332    -0.1051969     0.2904871
H           2.5256948     0.2043971     1.2209547
H           2.8408086     0.7117250    -0.4248147
19
149_C6H12O_0-3-16-12 (-150,) energy =    -311.0444632
C           0.9920756    -2.2381769     0.6050417
H          -0.0010034    -1.9611526     0.2278374
H           1.0170236    -2.0959640     1.6960670
C           2.2160574    -1.6473844    -0.1427661
C           1.7958118    -1.1032823    -1.5137074
H           1.2349819    -0.1655607    -1.4178648
H           1.1490245    -1.8278592    -2.0212752
H           2.6598582    -0.9142757    -2.1601572
C           2.6503311    -3.1355320    -0.2280542
O           1.3594977    -3.5877895     0.2370912
H           3.4534434    -3.4115157     0.4716898
H           2.8892633    -3.5306637    -1.2240349
C           3.8264400     0.4383189    -0.0762488
H           4.4106213     1.0480140     0.6221845
H           3.1298099     1.1058020    -0.5931298
H           4.5232394     0.0400724    -0.8237082
C           3.0943575    -0.6746868     0.6852073
H           3.8198033    -1.2560293     1.2689747
H           2.4454931    -0.1900729     1.4291340
19
149_C6H12O_0-3-16-12 (-135,) energy =    -311.0427481
C           0.9576630    -2.1596994     0.5845612
H          -0.0121511    -1.8397557     0.1810751
H           0.9719541    -1.9850906     1.6709905
C           2.2286328    -1.6585820    -0.1560176
C           1.8781774    -1.1505770    -1.5596110
H           1.3693337    -0.1804439    -1.5238590
H           1.2069333    -1.8609263    -2.0553716
H           2.7699667    -1.0400315    -2.1867084
C           2.5757148    -3.1734561    -0.1795800
O           1.2507069    -3.5369014     0.2637839
H           3.3431247    -3.4697947     0.5513653
H           2.8189342    -3.6143594    -1.1553725
C           3.7187972     0.5238908    -0.0393587
H           4.3701220     1.0778723     0.6460581
H           2.9151126     1.2014835    -0.3469210
H           4.3104929     0.2832175    -0.9295472
C           3.1803584    -0.7337441     0.6565666
H           4.0352419    -1.3283656     1.0047378
H           2.6594195    -0.4174627     1.5703760
19
149_C6H12O_0-3-16-12 (-120,) energy =    -311.0436530
C           0.9401359    -2.0712735     0.5551656
H          -0.0098387    -1.7349623     0.1186215
H           0.9438001    -1.8372907     1.6303971
C           2.2455371    -1.6578103    -0.1863860
C           1.9716271    -1.1963862    -1.6200920
H           1.5363161    -0.1912940    -1.6490269
H           1.2669120    -1.8812266    -2.1053012
H           2.8892473    -1.1828898    -2.2203871
C           2.5205630    -3.1885864    -0.1302219
O           1.1774044    -3.4718398     0.3130263
H           3.2666651    -3.4817474     0.6237890
H           2.7559419    -3.6858581    -1.0807222
C           3.6019745     0.5959741     0.0267889
H           4.3331135     1.0990019     0.6696549
H           2.7224705     1.2474034    -0.0393860
H           4.0388628     0.5243905    -0.9744901
C           3.2597518    -0.7847329     0.6030439
H           4.1997965    -1.3481277     0.6860971
H           2.9017686    -0.6657021     1.6336178
19
149_C6H12O_0-3-16-12 (-105,) energy =    -311.0463317
C           0.9061787    -1.9721327     0.5288416
H          -0.0190499    -1.6306943     0.0456588
H           0.8972100    -1.6553845     1.5822703
C           2.2398128    -1.6721476    -0.2178204
C           2.0298293    -1.2483235    -1.6724110
H           1.6414613    -0.2265262    -1.7466712
H           1.3110684    -1.9159575    -2.1610279
H           2.9678489    -1.2938643    -2.2399702
C           2.4307682    -3.2101244    -0.0827545
O           1.0838172    -3.3962372     0.3991597
H           3.1764814    -3.5071320     0.6699456
H           2.6187256    -3.7661817    -1.0110850
C           3.4761893     0.6153420     0.1231016
H           4.2382646     1.1010088     0.7428365
H           2.5475690     1.1886693     0.2367556
H           3.7949467     0.7024112    -0.9204422
C           3.3044646    -0.8501207     0.5432324
H           4.2743655    -1.3493338     0.3992463
H           3.1003767    -0.9096536     1.6198898
19
149_C6H12O_0-3-16-12 (-90,) energy =    -311.0490258
C           1.1330744    -1.7754590     0.5644249
H           0.2105973    -1.6829047    -0.0273345
H           1.0452455    -1.1442303     1.4590208
C           2.4466440    -1.6339692    -0.2567269
C           2.2829366    -1.2489893    -1.7252365
H           1.9411263    -0.2140659    -1.8380577
H           1.5478378    -1.8956580    -2.2177810
H           3.2315834    -1.3467833    -2.2687539
C           2.5627916    -3.1597924     0.0183065
O           1.4182711    -3.1485031     0.8977392
H           3.4732546    -3.4910856     0.5359314
H           2.3983752    -3.8007978    -0.8602317
C           3.5638643     0.6655567     0.2372743
H           4.3379763     1.1448607     0.8468036
H           2.6036743     1.1241317     0.5068046
H           3.7685136     0.9124062    -0.8094701
C           3.5553728    -0.8494181     0.4723235
H           4.5252922    -1.2544706     0.1467535
H           3.4853101    -1.0636491     1.5467338
19
149_C6H12O_0-3-16-12 (-75,) energy =    -311.0503223
C           1.1695849    -1.6776157     0.5353052
H           0.2532748    -1.5535512    -0.0596575
H           1.1195877    -1.0114541     1.4070161
C           2.4883433    -1.6479038    -0.2853865
C           2.3392583    -1.3200445    -1.7704161
H           2.0609713    -0.2718795    -1.9283948
H           1.5637474    -1.9406437    -2.2337816
H           3.2784098    -1.4993578    -2.3095099
C           2.5293497    -3.1614816     0.0578446
O           1.3767993    -3.0535030     0.9212770
H           3.4177070    -3.5123836     0.6002519
H           2.3421958    -3.8329380    -0.7926252
C           3.4771707     0.6630977     0.3465630
H           4.2714026     1.1457291     0.9266948
H           2.5181558     0.9882421     0.7688832
H           3.5380275     1.0480346    -0.6770507
C           3.6221194    -0.8625250     0.3956271
H           4.5761117    -1.1534121    -0.0680635
H           3.6812802    -1.1853968     1.4439739
19
149_C6H12O_0-3-16-12 (-60,) energy =    -311.0498114
C           1.2239815    -1.6282059     0.5548796
H           0.3551633    -1.2154901     0.0262420
H           1.2872462    -1.1692005     1.5526181
C           2.5657073    -1.6690369    -0.2248763
C           2.3777411    -1.4304115    -1.7266190
H           2.1519709    -0.3798240    -1.9435828
H           1.5506824    -2.0353249    -2.1156625
H           3.2845612    -1.7007980    -2.2821658
C           2.5269782    -3.1761734     0.1404207
O           1.1748232    -3.0705149     0.6372332
H           3.2308944    -3.4702049     0.9331373
H           2.6050528    -3.8892752    -0.6905745
C           3.4435011     0.6561177     0.4747969
H           4.2967957     1.1761440     0.9238860
H           2.5692229     0.8506493     1.1072083
H           3.2567459     1.1159980    -0.5022201
C           3.7244335    -0.8479935     0.3594881
H           4.6251998    -1.0116557    -0.2486567
H           3.9583041    -1.2347453     1.3612200
19
149_C6H12O_0-3-16-12 (-45,) energy =    -311.0478792
C           1.1759500    -1.5570986     0.3589522
H           0.3541802    -1.1201634    -0.2221474
H           1.2092899    -1.0808485     1.3493944
C           2.5510624    -1.6846705    -0.3502641
C           2.4034344    -1.5524168    -1.8716145
H           2.2494360    -0.5071746    -2.1669105
H           1.5478770    -2.1335464    -2.2341856
H           3.3027163    -1.9164033    -2.3839807
C           2.4477676    -3.1606343     0.1098949
O           1.0600581    -2.9946871     0.4748216
H           3.0713530    -3.4035770     0.9836506
H           2.5826942    -3.9355496    -0.6556571
C           3.3566047     0.6336054     0.4644467
H           4.2381325     1.1909734     0.7999684
H           2.5982465     0.7123786     1.2506530
H           2.9673938     1.1417913    -0.4262956
C           3.7188966    -0.8299344     0.1759869
H           4.5497731    -0.8717132    -0.5407306
H           4.0985051    -1.2754135     1.1063620
19
149_C6H12O_0-3-16-12 (-30,) energy =    -311.0453585
C           1.1559929    -1.5119355     0.2691423
H           0.3557697    -1.1040500    -0.3612850
H           1.1580423    -0.9851213     1.2329064
C           2.5513349    -1.6845691    -0.3932432
C           2.4267989    -1.6540771    -1.9222166
H           2.2853018    -0.6277049    -2.2841673
H           1.5730909    -2.2527356    -2.2599624
H           3.3318886    -2.0541551    -2.3959671
C           2.4283519    -3.1274393     0.1585022
O           1.0283133    -2.9406944     0.4573760
H           3.0175064    -3.3077312     1.0707790
H           2.5938605    -3.9523744    -0.5466209
C           3.3417201     0.5863040     0.6055207
H           4.2372147     1.1730094     0.8388510
H           2.7422012     0.5249416     1.5193049
H           2.7629850     1.1515918    -0.1359287
C           3.7308838    -0.8036201     0.0826503
H           4.4478023    -0.6911591    -0.7405565
H           4.2740394    -1.3268930     0.8817863
19
149_C6H12O_0-3-16-12 (-15,) energy =    -311.0439006
C           1.1233459    -1.4175051     0.2015336
H           0.3306307    -1.0778824    -0.4776442
H           1.1053461    -0.8006865     1.1090115
C           2.5293935    -1.6370698    -0.4279480
C           2.4329955    -1.7357835    -1.9549306
H           2.2767025    -0.7456171    -2.4016273
H           1.5987888    -2.3797597    -2.2564853
H           3.3551163    -2.1523596    -2.3792592
C           2.3998810    -3.0303069     0.2419701
O           0.9995339    -2.8219843     0.5199132
H           2.9856599    -3.1355979     1.1681044
H           2.5700854    -3.9098301    -0.3930355
C           3.3670059     0.5443948     0.7604332
H           4.2666865     1.1460032     0.9321903
H           2.9222181     0.3343936     1.7389578
H           2.6580825     1.1644460     0.1979468
C           3.7224083    -0.7400711    -0.0005447
H           4.2937949    -0.4628756    -0.8954513
H           4.4121350    -1.3312606     0.6170476
19
149_C6H12O_0-3-16-12 (0,) energy =    -311.0444303
C           1.0967820    -1.2969079     0.1205182
H           0.3119549    -1.0431684    -0.6043285
H           1.0497729    -0.5901046     0.9581171
C           2.5184976    -1.5477416    -0.4638591
C           2.4757826    -1.7758963    -1.9774129
H           2.3044367    -0.8324199    -2.5108429
H           1.6726075    -2.4706940    -2.2490879
H           3.4237291    -2.1958026    -2.3370116
C           2.3918964    -2.8808202     0.3232086
O           0.9891044    -2.6623332     0.5763076
H           2.9735676    -2.9042104     1.2575688
H           2.5740345    -3.8086742    -0.2354933
C           3.4053578     0.5094152     0.9115249
H           4.3104776     1.0992056     1.0955098
H           3.0509716     0.1422810     1.8817009
H           2.6430177     1.1893740     0.5137984
C           3.7066584    -0.6317786    -0.0675194
H           4.1265868    -0.1864208    -0.9792063
H           4.5072984    -1.2603664     0.3456421
19
149_C6H12O_0-3-16-12 (15,) energy =    -311.0462749
C           1.0753580    -1.2555389     0.0508927
H           0.2893438    -1.1138213    -0.7029496
H           0.9967795    -0.4574202     0.7989167
C           2.5054488    -1.5251966    -0.5037812
C           2.5018813    -1.8575972    -1.9974953
H           2.3090128    -0.9600059    -2.5983304
H           1.7294915    -2.5979563    -2.2358785
H           3.4708816    -2.2670238    -2.3103408
C           2.4017853    -2.7963452     0.3837230
O           1.0062522    -2.5612591     0.6612099
H           3.0099627    -2.7590166     1.3001313
H           2.5697698    -3.7600895    -0.1159212
C           3.4495504     0.3948211     1.0162885
H           4.3641639     0.9639625     1.2170801
H           3.1761475    -0.1252466     1.9425071
H           2.6554986     1.1156144     0.7929307
C           3.6729820    -0.5750769    -0.1494889
H           3.9270454     0.0210605    -1.0371262
H           4.5587304    -1.1945670     0.0497308
19
149_C6H12O_0-3-16-12 (30,) energy =    -311.0483553
C           1.0821029    -1.1381748     0.0309423
H           0.2842193    -1.3573695    -0.6938999
H           0.9037637    -0.1453970     0.4594369
C           2.5094405    -1.4541945    -0.4989069
C           2.5951571    -1.8392796    -1.9745900
H           2.4264454    -0.9674895    -2.6191513
H           1.8496907    -2.5995334    -2.2348373
H           3.5858796    -2.2430713    -2.2193599
C           2.4137550    -2.6439041     0.4966047
O           1.1723796    -2.1559446     1.0487961
H           3.2027388    -2.7092595     1.2578021
H           2.2925353    -3.6296317     0.0239201
C           3.4714786     0.2900723     1.2026714
H           4.3820557     0.8551462     1.4303303
H           3.2842102    -0.3937348     2.0384437
H           2.6435138     1.0056622     1.1706362
C           3.6273805    -0.4555689    -0.1287301
H           3.7192182     0.2875619    -0.9340462
H           4.5752226    -1.0127237    -0.1295664
19
149_C6H12O_0-3-16-12 (45,) energy =    -311.0493142
C           1.0174268    -1.1920333    -0.0716460
H           0.2245040    -1.4606202    -0.7850900
H           0.8442982    -0.1669156     0.2783755
C           2.4484497    -1.5526575    -0.5529448
C           2.5571049    -2.0194956    -2.0041609
H           2.4133226    -1.1827679    -2.6993719
H           1.8046998    -2.7818600    -2.2366018
H           3.5456424    -2.4503926    -2.2073079
C           2.3262474    -2.6813463     0.5055170
O           1.0943407    -2.1322047     1.0217739
H           3.1069636    -2.7361414     1.2746801
H           2.1787812    -3.6843823     0.0789066
C           3.5277677     0.1079172     1.1646293
H           4.3585556     0.8145649     1.2693804
H           3.6437464    -0.6542461     1.9423165
H           2.6034310     0.6557153     1.3756976
C           3.5290791    -0.4980091    -0.2445714
H           3.4311210     0.3141204    -0.9798151
H           4.5099865    -0.9569586    -0.4362936
19
149_C6H12O_0-3-16-12 (60,) energy =    -311.0487953
C           1.0352477    -1.1283040    -0.0991857
H           0.2908043    -1.3941887    -0.8634460
H           0.8422176    -0.1027264     0.2427396
C           2.5014400    -1.4698364    -0.4745957
C           2.6941116    -1.9967727    -1.8975076
H           2.5941140    -1.1892147    -2.6338881
H           1.9543356    -2.7675009    -2.1427132
H           3.6917866    -2.4359839    -2.0228959
C           2.3428175    -2.5659177     0.6133970
O           1.0419472    -2.0692833     0.9976655
H           3.0484763    -2.5552190     1.4523157
H           2.2868262    -3.5882943     0.2123781
C           3.6166321     0.1304749     1.2713782
H           4.2617113     1.0134112     1.3394123
H           4.0546691    -0.6433237     1.9102274
H           2.6425586     0.3966934     1.6970880
C           3.5024914    -0.3330893    -0.1863987
H           3.2202959     0.5198542    -0.8203841
H           4.4980625    -0.6456017    -0.5330966
19
149_C6H12O_0-3-16-12 (75,) energy =    -311.0472808
C           0.9885402    -1.1297746    -0.2065178
H           0.3170842    -1.1184787    -1.0752781
H           0.8185007    -0.2201683     0.3887309
C           2.4793339    -1.4488479    -0.4858882
C           2.6810802    -2.0272022    -1.8908380
H           2.6073124    -1.2410756    -2.6531128
H           1.9252854    -2.7883462    -2.1164076
H           3.6701768    -2.4925495    -1.9851452
C           2.2578431    -2.5625617     0.5738708
O           0.8318300    -2.3250030     0.5909274
H           2.7066615    -2.3807480     1.5583613
H           2.5002431    -3.5850008     0.2555301
C           3.8060361     0.0132815     1.2344102
H           4.4457206     0.9005487     1.2995088
H           4.3405697    -0.8131328     1.7149830
H           2.9042854     0.2139278     1.8257678
C           3.4790240    -0.3024466    -0.2297883
H           3.0828187     0.5970430    -0.7223582
H           4.4209921    -0.5303315    -0.7480168
19
149_C6H12O_0-3-16-12 (90,) energy =    -311.0452980
C           0.9444409    -1.1602639    -0.2853969
H           0.3234322    -1.1648634    -1.1908936
H           0.7140325    -0.2597417     0.3043075
C           2.4597476    -1.4269348    -0.4729391
C           2.7471655    -2.0484834    -1.8449068
H           2.6808266    -1.2933221    -2.6384365
H           2.0302258    -2.8452202    -2.0745620
H           3.7559729    -2.4788388    -1.8761738
C           2.2146049    -2.5201594     0.6039274
O           0.7811261    -2.3634180     0.4977685
H           2.5692388    -2.2780248     1.6135343
H           2.5371961    -3.5372747     0.3458927
C           3.9312671    -0.0745303     1.2269325
H           4.5735628     0.8101879     1.3015925
H           4.5258272    -0.9414121     1.5366404
H           3.1183444     0.0478526     1.9527056
C           3.4103021    -0.2345036    -0.2061944
H           2.8968964     0.6867012    -0.5149647
H           4.2807889    -0.3211115    -0.8702290
19
149_C6H12O_0-3-16-12 (105,) energy =    -311.0439478
C           0.8805642    -1.1707192    -0.3680400
H           0.3098462    -1.2219402    -1.3048355
H           0.5930019    -0.2597592     0.1791464
C           2.4130611    -1.3920775    -0.4628708
C           2.8006051    -2.0650618    -1.7845937
H           2.7401460    -1.3540701    -2.6182115
H           2.1356490    -2.9074158    -2.0079793
H           3.8291802    -2.4451855    -1.7430860
C           2.1362663    -2.4502288     0.6436802
O           0.7085420    -2.3531280     0.4412481
H           2.4162277    -2.1526329     1.6618902
H           2.5102647    -3.4644571     0.4520248
C           4.0456873    -0.1540366     1.1793226
H           4.7066492     0.7173617     1.2478807
H           4.6643157    -1.0493495     1.3146028
H           3.3467259    -0.1017869     2.0215532
C           3.3235764    -0.1679433    -0.1741374
H           2.7245317     0.7480939    -0.2671222
H           4.0842814    -0.1013293    -0.9625690
19
149_C6H12O_0-3-16-12 (120,) energy =    -311.0443499
C           0.8116637    -1.1917309    -0.4772019
H           0.2971261    -1.2765526    -1.4436334
H           0.4732103    -0.2761253     0.0317741
C           2.3538441    -1.3745403    -0.4740547
C           2.8495663    -2.0869981    -1.7365260
H           2.8098621    -1.4173748    -2.6047716
H           2.2366327    -2.9681957    -1.9583868
H           3.8890784    -2.4179226    -1.6166636
C           2.0284955    -2.3985769     0.6539354
O           0.6181358    -2.3596136     0.3448150
H           2.2209497    -2.0458818     1.6753947
H           2.4480000    -3.4064201     0.5386308
C           4.1376682    -0.2642332     1.0849736
H           4.7915650     0.6111175     1.1682414
H           4.7812636    -1.1506067     1.0205363
H           3.5656335    -0.3350941     2.0157017
C           3.2258939    -0.1350081    -0.1432677
H           2.5732799     0.7362382     0.0039600
H           3.8456624     0.1052193    -1.0165125
19
149_C6H12O_0-3-16-12 (135,) energy =    -311.0466184
C           0.7653132    -1.1948619    -0.5986379
H           0.3205378    -1.3220560    -1.5944941
H           0.3797779    -0.2674596    -0.1482640
C           2.3072626    -1.3522997    -0.4820234
C           2.9148639    -2.0864791    -1.6800740
H           2.9210582    -1.4444229    -2.5697170
H           2.3441151    -2.9913285    -1.9181908
H           3.9509327    -2.3848086    -1.4757925
C           1.9139201    -2.3403494     0.6570003
O           0.5300179    -2.3366421     0.2470526
H           2.0266455    -1.9394686     1.6737794
H           2.3546370    -3.3448117     0.6176815
C           4.2078490    -0.3449232     0.9744307
H           4.8015187     0.5623728     1.1322196
H           4.9014806    -1.1431411     0.6815094
H           3.7693894    -0.6221789     1.9382941
C           3.1305968    -0.1049170    -0.0929841
H           2.4504547     0.6722512     0.2820747
H           3.5968099     0.3143409    -0.9943546
19
149_C6H12O_0-3-16-12 (150,) energy =    -311.0491740
C           0.8111870    -1.1461609    -0.6691201
H           0.4453373    -1.3578606    -1.6825030
H           0.3959914    -0.1847000    -0.3317989
C           2.3386078    -1.2994422    -0.4267264
C           3.0425101    -2.0594814    -1.5535517
H           3.1296721    -1.4346078    -2.4512446
H           2.4838455    -2.9629419    -1.8235679
H           4.0533218    -2.3671394    -1.2600205
C           1.8663680    -2.2359499     0.7223461
O           0.5027996    -2.2139206     0.2492331
H           1.9484380    -1.8012093     1.7292551
H           2.2818434    -3.2518516     0.7375784
C           4.3246956    -0.2965358     0.8875201
H           4.8196688     0.6442840     1.1523820
H           5.0683311    -0.9281847     0.3874482
H           4.0403018    -0.7934117     1.8218850
C           3.1017758    -0.0338358    -0.0020022
H           2.4143254     0.6247667     0.5466846
H           3.4073154     0.5236235    -0.8983192
19
149_C6H12O_0-3-16-12 (165,) energy =    -311.0503000
C           0.8329015    -1.1132348    -0.7192497
H           0.5142333    -1.4327208    -1.7207566
H           0.4497208    -0.1001794    -0.5300181
C           2.3347142    -1.3206808    -0.3838839
C           3.0998871    -2.0844664    -1.4668421
H           3.2873171    -1.4460176    -2.3396430
H           2.5288985    -2.9566781    -1.8053287
H           4.0682318    -2.4449018    -1.1015273
C           1.7775995    -2.2254804     0.7497297
O           0.4166958    -2.0449974     0.3020570
H           1.9253111    -1.8415744     1.7694385
H           2.0824289    -3.2802490     0.7203305
C           4.4205602    -0.2986323     0.7550261
H           4.8455454     0.6408971     1.1250421
H           5.1471914    -0.7372360     0.0626190
H           4.3251427    -0.9767525     1.6121362
C           3.0631447    -0.0524080     0.0848026
H           2.4110493     0.4815416     0.7896171
H           3.1952604     0.6185594    -0.7764882
19
149_C6H12O_0-3-16-12 (180,) energy =    -311.0494894
C           0.8680597    -1.1263221    -0.7571240
H           0.6309841    -1.3845548    -1.7977146
H           0.4599051    -0.1295132    -0.5338190
C           2.3380067    -1.3381423    -0.3098388
C           3.1593610    -2.1082714    -1.3475900
H           3.4311222    -1.4646853    -2.1941967
H           2.5854514    -2.9553672    -1.7404000
H           4.0852202    -2.5062971    -0.9176381
C           1.6978023    -2.2571047     0.7655400
O           0.3869175    -2.1222538     0.1735218
H           1.7269151    -1.8576559     1.7899384
H           2.0340417    -3.3022292     0.7805546
C           4.4909277    -0.2382452     0.6417362
H           4.8793892     0.6968743     1.0600448
H           5.1432575    -0.5233746    -0.1899688
H           4.5838347    -1.0089495     1.4176724
C           3.0353559    -0.0641292     0.1913337
H           2.4430813     0.3607125     1.0129936
H           3.0047441     0.6806996    -0.6180748
