25
011_C8H13N4+_1-0-9-8 (-165,) energy =    -531.4554949
C           3.9101065     1.5468531     0.0825848
N           3.0345901     2.3426759     0.7102435
C           1.7453111     2.1390487     0.4141584
C           1.3282215     1.1787009    -0.5040562
C           2.3372965     0.4415748    -1.1211669
N           3.6330482     0.6172071    -0.8415234
N           7.4161038     3.3679722    -0.3682106
C           6.9555179     2.2205609    -1.2634690
C           6.3072193     1.1383999    -0.3964322
N           5.2569745     1.7000145     0.4288719
C           5.6815364     2.7670992     1.3122901
C           6.3021141     3.9191083     0.5186964
H           1.0311139     2.7780068     0.9289633
H           0.2814713     1.0240408    -0.7366031
H           2.1085416    -0.3152594    -1.8683794
H           8.1799129     3.0317888     0.2323842
H           7.8130125     4.1211651    -0.9407896
H           6.2401676     2.6503593    -1.9685622
H           7.8352784     1.8616689    -1.8039608
H           5.8776735     0.3717225    -1.0427956
H           7.0676368     0.6620111     0.2398604
H           4.8155493     3.1421149     1.8589459
H           6.4087630     2.3779101     2.0401619
H           6.7500133     4.6843098     1.1579581
H           5.5729055     4.3788009    -0.1523785
25
011_C8H13N4+_1-0-9-8 (-150,) energy =    -531.4544304
C           3.9832575     1.5030259     0.1184816
N           3.1545336     2.4355599     0.6063651
C           1.8648636     2.3052562     0.2658472
C           1.4104969     1.2942644    -0.5755447
C           2.3819363     0.4250366    -1.0719104
N           3.6718908     0.5189931    -0.7355608
N           7.3044656     3.4018464    -0.3976312
C           6.8738052     2.2223019    -1.2650051
C           6.3641284     1.0918673    -0.3650444
N           5.3231223     1.5659367     0.5315897
C           5.7482183     2.6560692     1.3928106
C           6.2195758     3.8599807     0.5744138
H           1.1858429     3.0511485     0.6731420
H           0.3660228     1.2018062    -0.8483160
H           2.1251053    -0.3744318    -1.7635493
H           8.1364959     3.1293459     0.1410907
H           7.5943277     4.1854174    -0.9931698
H           6.0846229     2.5972279    -1.9211397
H           7.7399586     1.9299534    -1.8643806
H           5.9587623     0.2943719    -0.9893418
H           7.1917959     0.6737732     0.2239001
H           4.9142125     2.9709324     2.0196771
H           6.5574398     2.2993593     2.0449992
H           6.6534054     4.6531375     1.1887276
H           5.4054699     4.2640198    -0.0313453
25
011_C8H13N4+_1-0-9-8 (-135,) energy =    -531.4522268
C           4.0079237     1.4637186     0.1268943
N           3.2466589     2.5184564     0.4453025
C           1.9546273     2.4347427     0.0906567
C           1.4438765     1.3526560    -0.6171764
C           2.3581411     0.3559283    -0.9642053
N           3.6414724     0.3986057    -0.5973863
N           7.2337523     3.4266596    -0.3922131
C           6.8042677     2.2630269    -1.2787589
C           6.3750641     1.0859636    -0.3956287
N           5.3482839     1.4801500     0.5594885
C           5.7722471     2.5698887     1.4269870
C           6.1720064     3.8157183     0.6331136
H           1.3266218     3.2782184     0.3686980
H           0.4010482     1.2982261    -0.9064622
H           2.0563556    -0.5073891    -1.5533498
H           8.0945529     3.1640712     0.1045879
H           7.4749716     4.2380011    -0.9719837
H           5.9748191     2.6329145    -1.8864077
H           7.6504093     2.0186625    -1.9262815
H           5.9832087     0.2874103    -1.0280047
H           7.2414432     0.6852454     0.1474638
H           4.9582111     2.8424195     2.0986313
H           6.6166451     2.2197913     2.0365585
H           6.6025046     4.6019036     1.2585729
H           5.3188723     4.2061757     0.0750786
25
011_C8H13N4+_1-0-9-8 (-120,) energy =    -531.4486517
C           4.0314132     1.4286186     0.1235848
N           3.3408580     2.5688234     0.2483986
C           2.0475590     2.5131565    -0.1125478
C           1.4758277     1.3678063    -0.6530284
C           2.3263322     0.2724053    -0.8218442
N           3.6035285     0.2895513    -0.4326143
N           7.2038133     3.4561946    -0.3834131
C           6.7551608     2.3277172    -1.3025224
C           6.3851840     1.1069182    -0.4522641
N           5.3791530     1.4219376     0.5560203
C           5.8008128     2.5047444     1.4378089
C           6.1678133     3.7877693     0.6858294
H           1.4735413     3.4279339     0.0166479
H           0.4345891     1.3344656    -0.9516809
H           1.9751853    -0.6507608    -1.2777972
H           8.0824299     3.1815692     0.0742199
H           7.4181620     4.2943929    -0.9346903
H           5.8961276     2.7109839    -1.8584319
H           7.5767346     2.1236931    -1.9941301
H           6.0007817     0.3186137    -1.1029484
H           7.2818317     0.7106536     0.0437398
H           4.9971257     2.7434499     2.1356474
H           6.6601679     2.1512877     2.0245349
H           6.6080394     4.5489893     1.3349815
H           5.2943382     4.1875301     0.1686877
25
011_C8H13N4+_1-0-9-8 (-105,) energy =    -531.4444489
C           4.0419616     1.3993810     0.1211297
N           3.4268511     2.5864190     0.0390396
C           2.1337672     2.5558299    -0.3271139
C           1.4907111     1.3742447    -0.6754461
C           2.2664473     0.2133216    -0.6408808
N           3.5402843     0.2141235    -0.2367244
N           7.1798493     3.4845967    -0.3469834
C           6.7054520     2.4034952    -1.3080407
C           6.3829583     1.1376333    -0.5051831
N           5.3998577     1.3742269     0.5475474
C           5.8211081     2.4360292     1.4580821
C           6.1719238     3.7578717     0.7638634
H           1.6203077     3.5139988    -0.3623490
H           0.4507811     1.3582394    -0.9807028
H           1.8568165    -0.7495629    -0.9381363
H           8.0715016     3.1890201     0.0706689
H           7.3767048     4.3506779    -0.8601616
H           5.8210643     2.8063660    -1.8068599
H           7.5013513     2.2443717    -2.0402159
H           6.0038997     0.3690480    -1.1830711
H           7.3030782     0.7400333    -0.0538740
H           5.0248797     2.6378311     2.1772722
H           6.6886192     2.0689893     2.0246419
H           6.6305763     4.4814133     1.4427847
H           5.2874621     4.1815654     0.2873222
25
011_C8H13N4+_1-0-9-8 (-90,) energy =    -531.4414110
C           3.7164907     1.8848092    -0.2335732
N           2.8173313     2.4357342    -1.0488939
C           1.6038562     1.8688325    -1.0409333
C           1.2847776     0.7990535    -0.2044602
C           2.3038940     0.3275500     0.6177844
N           3.5341695     0.8628549     0.6041413
N           7.8033391     3.0246308    -0.0172384
C           7.1317691     2.8622744    -1.3733777
C           5.9165118     1.9563698    -1.2191198
N           5.0053428     2.5215051    -0.2219982
C           5.6413839     2.5383187     1.0967092
C           6.8298318     3.4912958     1.0571800
H           0.8661363     2.3013815    -1.7131236
H           0.2931491     0.3609530    -0.1918771
H           2.1444602    -0.5002283     1.3050589
H           8.1985262     2.1193666     0.2674173
H           8.5925428     3.6764385    -0.0886485
H           6.8362531     3.8637850    -1.6922700
H           7.8771970     2.4537471    -2.0597265
H           5.4072181     1.9150796    -2.1862376
H           6.2342803     0.9282176    -0.9628206
H           4.9322763     2.9131874     1.8390352
H           5.9593825     1.5377241     1.4355996
H           7.3780712     3.5160137     2.0018747
H           6.5229751     4.5005205     0.7751214
25
011_C8H13N4+_1-0-9-8 (-75,) energy =    -531.4454238
C           3.7327279     1.8475088    -0.2087423
N           2.9174767     2.2779097    -1.1753525
C           1.6910377     1.7450425    -1.1778379
C           1.2680158     0.8377996    -0.2045496
C           2.2006524     0.4916191     0.7671708
N           3.4483730     0.9877209     0.7692299
N           7.8036179     3.0547620    -0.0379560
C           7.0919384     2.9545968    -1.3799527
C           5.9127748     2.0004385    -1.2432492
N           5.0190314     2.4699892    -0.1833990
C           5.6934639     2.4291714     1.1135106
C           6.8522939     3.4191278     1.0947656
H           1.0242094     2.0746612    -1.9715665
H           0.2639009     0.4293959    -0.2035193
H           1.9579648    -0.2035776     1.5675894
H           8.2378488     2.1477655     0.1753272
H           8.5684355     3.7366455    -0.0922298
H           6.7543150     3.9633528    -1.6258793
H           7.8261641     2.6145327    -2.1140358
H           5.3674817     1.9990316    -2.1907975
H           6.2740726     0.9715560    -1.0580907
H           4.9973638     2.7306287     1.8989327
H           6.0519756     1.4204872     1.3815964
H           7.4311571     3.4016204     2.0211689
H           6.5064328     4.4341835     0.8889669
25
011_C8H13N4+_1-0-9-8 (-60,) energy =    -531.4496846
C           3.7384704     1.8022931    -0.1885652
N           3.0022089     2.0929015    -1.2668720
C           1.7626673     1.5946206    -1.2735365
C           1.2460853     0.8583270    -0.2054684
C           2.1015086     0.6465146     0.8699012
N           3.3616920     1.1092564     0.8861438
N           7.7880927     3.0837934    -0.0721705
C           7.0349086     3.0355544    -1.3948811
C           5.8957469     2.0326548    -1.2772961
N           5.0270550     2.3999973    -0.1604954
C           5.7357541     2.3289706     1.1134213
C           6.8642419     3.3535218     1.1089104
H           1.1617209     1.8110012    -2.1541180
H           0.2322655     0.4752661    -0.2137005
H           1.7849888     0.0867203     1.7470075
H           8.2572745     2.1810192     0.0748716
H           8.5292771     3.7923158    -0.1113989
H           6.6565428     4.0445054    -1.5710621
H           7.7552829     2.7642045    -2.1701312
H           5.3112030     2.0660111    -2.1997507
H           6.3008812     1.0095832    -1.1669735
H           5.0507952     2.5701848     1.9278123
H           6.1314727     1.3204685     1.3271264
H           7.4741121     3.3046503     2.0140415
H           6.4815157     4.3669352     0.9713035
25
011_C8H13N4+_1-0-9-8 (-45,) energy =    -531.4531644
C           3.7510922     1.7627576    -0.1694112
N           3.0872963     1.9107867    -1.3221959
C           1.8308879     1.4568616    -1.3310283
C           1.2290886     0.8945202    -0.2043756
C           2.0174090     0.8123626     0.9385418
N           3.2891064     1.2380146     0.9670690
N           7.7764845     3.1136544    -0.0896470
C           6.9886985     3.1035733    -1.3941477
C           5.8944665     2.0493496    -1.3030878
N           5.0529263     2.3132508    -0.1416277
C           5.7870916     2.2238932     1.1129471
C           6.8779972     3.2879522     1.1291852
H           1.2890308     1.5618211    -2.2684485
H           0.2049131     0.5408293    -0.2201203
H           1.6340286     0.3884850     1.8639152
H           8.2842634     2.2240834    -0.0023355
H           8.4885915     3.8521255    -0.1118722
H           6.5675463     4.1047871    -1.5060502
H           7.6983246     2.9032192    -2.2002851
H           5.2763562     2.1056320    -2.2014157
H           6.3447544     1.0402836    -1.2627246
H           5.1065934     2.4015295     1.9465554
H           6.2259943     1.2228422     1.2742117
H           7.5156700     3.2162416     2.0134049
H           6.4560824     4.2923981     1.0545204
25
011_C8H13N4+_1-0-9-8 (-30,) energy =    -531.4554174
C           3.7648142     1.7237644    -0.1635663
N           3.1572051     1.7374759    -1.3558864
C           1.8817970     1.3370394    -1.3634594
C           1.2114237     0.9456390    -0.2053787
C           1.9498006     0.9824331     0.9741679
N           3.2328400     1.3651000     1.0088169
N           7.7567995     3.1505807    -0.1001296
C           6.9425315     3.1637967    -1.3890184
C           5.9028906     2.0525539    -1.3316047
N           5.0863132     2.2063647    -0.1382178
C           5.8402332     2.1155015     1.1008227
C           6.8787574     3.2298719     1.1437014
H           1.3854536     1.3387667    -2.3314242
H           0.1759180     0.6272062    -0.2232756
H           1.5117044     0.6925335     1.9266313
H           8.3042045     2.2810485    -0.0636876
H           8.4360923     3.9196500    -0.1027047
H           6.4724134     4.1478866    -1.4437442
H           7.6446522     3.0382964    -2.2166707
H           5.2571178     2.1213383    -2.2088037
H           6.4033161     1.0672072    -1.3594664
H           5.1579478     2.2258941     1.9446140
H           6.3333665     1.1330808     1.2151522
H           7.5390507     3.1508663     2.0106330
H           6.4087021     4.2153209     1.1220356
25
011_C8H13N4+_1-0-9-8 (-15,) energy =    -531.4562960
C           3.7641147     1.6873805    -0.1649665
N           3.1919563     1.5832795    -1.3701209
C           1.8956886     1.2527910    -1.3725611
C           1.1760427     1.0295609    -0.2007797
C           1.8846519     1.1675237     0.9906889
N           3.1813568     1.4947482     1.0241803
N           7.7135119     3.1755770    -0.1052081
C           6.8807159     3.1957570    -1.3828096
C           5.9011258     2.0281916    -1.3600519
N           5.1107375     2.0757965    -0.1455729
C           5.8755696     1.9977784     1.0839317
C           6.8538405     3.1648469     1.1546395
H           1.4268636     1.1658967    -2.3502805
H           0.1268953     0.7596342    -0.2154075
H           1.4067084     1.0103866     1.9551409
H           8.3050885     2.3345655    -0.1092084
H           8.3529595     3.9778847    -0.0886127
H           6.3604563     4.1558889    -1.3924420
H           7.5775666     3.1409987    -2.2227255
H           5.2318292     2.0999900    -2.2189739
H           6.4522653     1.0745811    -1.4496403
H           5.1887781     2.0476903     1.9303309
H           6.4251650     1.0424242     1.1618003
H           7.5329203     3.0903803     2.0074851
H           6.3326811     4.1242886     1.1759875
25
011_C8H13N4+_1-0-9-8 (0,) energy =    -531.4560572
C           3.8272456     1.5998399    -0.2109955
N           3.2446323     1.4686593    -1.4093704
C           1.9259684     1.2441579    -1.3944104
C           1.1945296     1.1444947    -0.2129527
C           1.9148650     1.2996212     0.9694186
N           3.2322376     1.5304645     0.9866089
N           7.6382253     3.2663090    -0.1703462
C           6.7937999     3.2124583    -1.4401342
C           5.9653797     1.9293644    -1.4353331
N           5.2043166     1.8334191    -0.2093569
C           5.9758258     1.8467145     1.0139707
C           6.8049271     3.1259888     1.1003561
H           1.4488193     1.1384104    -2.3662712
H           0.1276650     0.9562202    -0.2135966
H           1.4282291     1.2397971     1.9404921
H           8.3278415     2.5039904    -0.1993052
H           8.1761467     4.1396092    -0.1429405
H           6.1589488     4.1010185    -1.4214731
H           7.4826616     3.2652425    -2.2869771
H           5.2735437     1.9384352    -2.2793466
H           6.6302516     1.0573613    -1.5594182
H           5.2898419     1.8027974     1.8617446
H           6.6408290     0.9678814     1.0710531
H           7.5013255     3.1209382     1.9426459
H           6.1699142     4.0133315     1.1481323
25
011_C8H13N4+_1-0-9-8 (15,) energy =    -531.4555209
C           3.9321215     1.4816745    -0.1975690
N           3.3390057     1.4341377    -1.3979078
C           2.0030986     1.3767505    -1.3860785
C           1.2611903     1.3694914    -0.2063599
C           1.9913348     1.4475451     0.9769739
N           3.3279323     1.5120359     0.9973603
N           7.4266677     3.3896284    -0.1152569
C           6.6356856     3.1617572    -1.4007591
C           6.0836986     1.7340617    -1.4022593
N           5.3310937     1.4708640    -0.1924994
C           6.0736168     1.6484846     1.0388318
C           6.6246233     3.0722851     1.1445509
H           1.5184850     1.3364981    -2.3592059
H           0.1790620     1.3179173    -0.2101494
H           1.4981115     1.4659476     1.9463929
H           8.2636357     2.7926803    -0.1325181
H           7.7662481     4.3571650    -0.0799180
H           5.8319752     3.9017970    -1.4010560
H           7.3152325     3.3554629    -2.2347842
H           5.4258790     1.6054356    -2.2630181
H           6.9095735     1.0129774    -1.4926394
H           5.4095065     1.4632785     1.8839360
H           6.8991347     0.9225694     1.0818178
H           7.2974279     3.2065007     1.9955089
H           5.8193559     3.8090740     1.1905784
25
011_C8H13N4+_1-0-9-8 (30,) energy =    -531.4545342
C           4.0196524     1.4455116    -0.2221799
N           3.4083467     1.2990468    -1.4052593
C           2.0726419     1.3293447    -1.3799415
C           1.3468924     1.4934537    -0.2001391
C           2.0946870     1.6608563     0.9613913
N           3.4347454     1.6519568     0.9646710
N           7.3311111     3.4320269    -0.0740113
C           6.5763272     3.1623799    -1.3727662
C           6.1597302     1.6887444    -1.4187607
N           5.4176939     1.3154022    -0.2260699
C           6.1533453     1.5278565     1.0086106
C           6.5610070     2.9939498     1.1696935
H           1.5733201     1.2134498    -2.3394937
H           0.2635394     1.5052670    -0.1910920
H           1.6161616     1.8183774     1.9254912
H           8.2267037     2.9281568    -0.1017631
H           7.5663091     4.4284724    -0.0073126
H           5.7065056     3.8236429    -1.3638971
H           7.2401303     3.4419814    -2.1950422
H           5.5300564     1.5230789    -2.2941423
H           7.0465137     1.0472647    -1.5131270
H           5.5275872     1.2484777     1.8560617
H           7.0438326     0.8840678     1.0072385
H           7.2148070     3.1654150     2.0286762
H           5.6829829     3.6400523     1.2383241
25
011_C8H13N4+_1-0-9-8 (45,) energy =    -531.4524189
C           4.0407366     1.4310439    -0.2640585
N           3.3963958     1.1195153    -1.3961126
C           2.0644806     1.2025865    -1.3519703
C           1.3723828     1.5624788    -0.1938281
C           2.1505345     1.8753216     0.9148792
N           3.4917241     1.8290944     0.8900495
N           7.2725799     3.4327765    -0.0346270
C           6.5257058     3.1878052    -1.3412276
C           6.1695905     1.7008990    -1.4507378
N           5.4365295     1.2365152    -0.2802061
C           6.1696236     1.4405592     0.9612477
C           6.5201323     2.9126728     1.1874901
H           1.5380341     0.9593999    -2.2724211
H           0.2901128     1.6069335    -0.1648044
H           1.7000239     2.1852409     1.8551595
H           8.1874147     2.9665834    -0.0838628
H           7.4680411     4.4340857     0.0739836
H           5.6305525     3.8133583    -1.3021619
H           7.1732016     3.5281829    -2.1535447
H           5.5539163     1.5446635    -2.3384595
H           7.0816819     1.1008880    -1.5689130
H           5.5663159     1.1010573     1.8029808
H           7.0840291     0.8325547     0.9264328
H           7.1670388     3.0707752     2.0541714
H           5.6144012     3.5147897     1.2830521
25
011_C8H13N4+_1-0-9-8 (60,) energy =    -531.4489063
C           4.0532999     1.4309345    -0.3110008
N           3.3764451     0.9325111    -1.3523158
C           2.0474801     1.0440400    -1.2940956
C           1.3889992     1.6014056    -0.1949747
C           2.1968093     2.0815267     0.8282660
N           3.5380196     2.0172779     0.7757011
N           7.2496824     3.4439786     0.0072955
C           6.4918960     3.2473877    -1.2991983
C           6.1753676     1.7579197    -1.4768743
N           5.4518651     1.2055957    -0.3356368
C           6.1784294     1.3913537     0.9159893
C           6.5130479     2.8568943     1.2072393
H           1.4945364     0.6545644    -2.1461796
H           0.3080108     1.6611839    -0.1463225
H           1.7734686     2.5430360     1.7175022
H           8.1706950     2.9944784    -0.0728173
H           7.4309355     4.4418966     0.1615040
H           5.5828013     3.8481156    -1.2171220
H           7.1189927     3.6423353    -2.1027712
H           5.5714315     1.6246501    -2.3772488
H           7.1052798     1.1917002    -1.6226552
H           5.5816321     1.0113452     1.7458574
H           7.1003045     0.7957117     0.8631943
H           7.1648966     2.9795965     2.0759831
H           5.5983487     3.4379123     1.3349920
25
011_C8H13N4+_1-0-9-8 (75,) energy =    -531.4445518
C           4.0588914     1.4109257    -0.3566764
N           3.3515780     0.7269821    -1.2605545
C           2.0238451     0.8587186    -1.1907259
C           1.3980866     1.6177496    -0.1990691
C           2.2345354     2.2740024     0.6953546
N           3.5738157     2.1917244     0.6166406
N           7.2409273     3.4349649     0.0612504
C           6.4631266     3.3037911    -1.2405988
C           6.1758703     1.8196373    -1.4971733
N           5.4648545     1.1815955    -0.3923447
C           6.1851080     1.3295974     0.8704274
C           6.5230362     2.7796924     1.2359019
H           1.4467096     0.3186294    -1.9381158
H           0.3188234     1.6924681    -0.1320266
H           1.8367180     2.8933781     1.4959927
H           8.1633373     2.9971086    -0.0579786
H           7.4176610     4.4240527     0.2679410
H           5.5444519     3.8795134    -1.1058896
H           7.0683322     3.7565069    -2.0303429
H           5.5810448     1.7230812    -2.4090074
H           7.1193964     1.2841690    -1.6736195
H           5.5883165     0.9107283     1.6826629
H           7.1074742     0.7359283     0.7997680
H           7.1883420     2.8526964     2.1001038
H           5.6087737     3.3498478     1.4038081
25
011_C8H13N4+_1-0-9-8 (90,) energy =    -531.4415505
C           3.6579664     1.9407078    -0.1584549
N           3.5295468     0.6150695    -0.2379087
C           2.2880588     0.1590598    -0.4640050
C           1.2097476     1.0182051    -0.6548806
C           1.4856205     2.3846727    -0.6045586
N           2.7121306     2.8598851    -0.3516191
N           7.8074885     2.7956170     0.1138020
C           6.9431033     3.5427083    -0.8918963
C           5.6933960     2.7202906    -1.1794923
N           4.9776089     2.4605304     0.0706105
C           5.7901984     1.6294122     0.9608014
C           7.0332316     2.4110695     1.3677143
H           2.1704315    -0.9212904    -0.5088235
H           0.2099867     0.6448739    -0.8459457
H           0.7061507     3.1258730    -0.7664286
H           8.1645638     1.9389099    -0.3281014
H           8.6287524     3.3583774     0.3620337
H           6.6864179     4.4971449    -0.4280120
H           7.5512330     3.7097492    -1.7840385
H           5.0522760     3.3086365    -1.8419812
H           5.9603863     1.7872214    -1.7104370
H           5.2224684     1.4020367     1.8667104
H           6.0720466     0.6629009     0.5093063
H           7.7077344     1.8270307     1.9982289
H           6.7712274     3.3471044     1.8651713
25
011_C8H13N4+_1-0-9-8 (105,) energy =    -531.4453951
C           3.6673800     1.9129233    -0.1559443
N           3.4712553     0.5998182    -0.0322935
C           2.2160719     0.1739897    -0.2464257
C           1.1972444     1.0384980    -0.6326806
C           1.5474386     2.3803220    -0.7928662
N           2.7829833     2.8319990    -0.5517180
N           7.8056159     2.8276639     0.1173405
C           6.9115833     3.6108473    -0.8342597
C           5.6865991     2.7696998    -1.1676431
N           4.9896307     2.4053070     0.0656749
C           5.8285222     1.5458521     0.8991521
C           7.0519688     2.3368485     1.3469889
H           2.0418239    -0.8924755    -0.1231350
H           0.1883807     0.6866256    -0.8154889
H           0.8194181     3.1197953    -1.1191139
H           8.1878024     2.0140221    -0.3812730
H           8.6099340     3.3991923     0.3988829
H           6.6288149     4.5251965    -0.3088614
H           7.5083235     3.8535381    -1.7166585
H           5.0184073     3.3748889    -1.7856520
H           5.9815687     1.8803199    -1.7556449
H           5.2728509     1.2408209     1.7885296
H           6.1355717     0.6179981     0.3865525
H           7.7485933     1.7329013     1.9331537
H           6.7671285     3.2294892     1.9076584
25
011_C8H13N4+_1-0-9-8 (120,) energy =    -531.4494655
C           3.6764753     1.8803141    -0.1816688
N           3.4145916     0.6123473     0.1383162
C           2.1464233     0.2138278    -0.0495629
C           1.1787900     1.0490811    -0.5970227
C           1.5962016     2.3338921    -0.9495901
N           2.8440853     2.7643158    -0.7419726
N           7.7962330     2.8702880     0.1162878
C           6.8758606     3.6798100    -0.7877038
C           5.6825455     2.8183623    -1.1765790
N           5.0014339     2.3465384     0.0266235
C           5.8614859     1.4783852     0.8237711
C           7.0601819     2.2825246     1.3136617
H           1.9196494    -0.8124205     0.2302536
H           0.1600893     0.7157410    -0.7576284
H           0.9122932     3.0444178    -1.4086786
H           8.2043060     2.1012076    -0.4303231
H           8.5820130     3.4493938     0.4326213
H           6.5624289     4.5503701    -0.2080253
H           7.4646148     3.9964126    -1.6518635
H           4.9877097     3.4322724    -1.7540914
H           6.0119995     1.9799997    -1.8184537
H           5.3109554     1.1122429     1.6920217
H           6.1974898     0.5851301     0.2683968
H           7.7769591     1.6684169     1.8639004
H           6.7478146     3.1307314     1.9263303
25
011_C8H13N4+_1-0-9-8 (135,) energy =    -531.4528908
C           3.6871610     1.8435075    -0.2280724
N           3.3572354     0.6518623     0.2743423
C           2.0761061     0.2873412     0.1155814
C           1.1560536     1.0753232    -0.5680888
C           1.6382587     2.2763812    -1.0900707
N           2.9027252     2.6748468    -0.9238561
N           7.7832828     2.9068084     0.1208509
C           6.8410174     3.7344604    -0.7447962
C           5.6858468     2.8541522    -1.2002633
N           5.0193511     2.2762055    -0.0394557
C           5.8946836     1.4064956     0.7336425
C           7.0604342     2.2248245     1.2762518
H           1.7968317    -0.6755112     0.5373652
H           0.1259205     0.7668111    -0.7020815
H           0.9947399     2.9451563    -1.6574940
H           8.2243934     2.1864214    -0.4650668
H           8.5444036     3.4949671     0.4781711
H           6.4907064     4.5568054    -0.1176304
H           7.4264727     4.1239161    -1.5809699
H           4.9675143     3.4704161    -1.7444531
H           6.0551504     2.0731272    -1.8905728
H           5.3408287     0.9821944     1.5720143
H           6.2686473     0.5519408     0.1416384
H           7.7954594     1.6068255     1.7972913
H           6.7139892     3.0253823     1.9331931
25
011_C8H13N4+_1-0-9-8 (150,) energy =    -531.4552334
C           3.7070088     1.7994143    -0.2694160
N           3.3147562     0.7097219     0.3976255
C           2.0209272     0.3856015     0.2744176
C           1.1392347     1.1139183    -0.5193065
C           1.6779562     2.2107038    -1.1906534
N           2.9612192     2.5666175    -1.0731400
N           7.7683794     2.9430672     0.1530371
C           6.8065377     3.7758705    -0.6868250
C           5.7027668     2.8726264    -1.2201457
N           5.0503303     2.1887298    -0.1150262
C           5.9408480     1.3292164     0.6466975
C           7.0562786     2.1694647     1.2568142
H           1.6945323    -0.4950023     0.8231996
H           0.0965338     0.8369796    -0.6197857
H           1.0676049     2.8294454    -1.8448260
H           8.2501210     2.2743278    -0.4616067
H           8.4974664     3.5425995     0.5554203
H           6.4070576     4.5448131    -0.0223059
H           7.3913827     4.2387123    -1.4852410
H           4.9623611     3.4823902    -1.7408836
H           6.1220681     2.1570776    -1.9512542
H           5.3776039     0.8447325     1.4451967
H           6.3697757     0.5220785     0.0255074
H           7.8093545     1.5588664     1.7606555
H           6.6612072     2.9179960     1.9468566
25
011_C8H13N4+_1-0-9-8 (165,) energy =    -531.4562729
C           3.7391580     1.6739440    -0.0933180
N           2.8721526     2.2790305     0.7268743
C           1.6018937     1.8687960     0.6365794
C           1.1968105     0.8697135    -0.2456045
C           2.1955362     0.3097026    -1.0392644
N           3.4727318     0.7019413    -0.9736381
N           7.6703757     3.2158959    -0.1617729
C           7.1830068     2.2492964    -1.2360769
C           6.1242430     1.3301509    -0.6386232
N           5.0662705     2.1231802    -0.0431857
C           5.4952561     3.0070422     1.0235946
C           6.5296149     3.9910719     0.4892547
H           0.8933352     2.3593714     1.3003265
H           0.1658572     0.5421722    -0.3060280
H           1.9748660    -0.4809535    -1.7530201
H           8.1642455     2.6814999     0.5647220
H           8.3574519     3.8666557    -0.5583894
H           6.7720685     2.8665478    -2.0377817
H           8.0567896     1.7017576    -1.5976687
H           5.6970017     0.7090446    -1.4276189
H           6.5896392     0.6525192     0.1000356
H           4.6296558     3.5564784     1.3967302
H           5.9178288     2.4436382     1.8750668
H           6.9676385     4.6069244     1.2784934