18
183_C6H12_2-0-8-9 (-165,) energy =    -235.8517203
C           1.7720793    -0.9452542    -0.8790535
H           2.0792913    -0.3745145    -1.7587460
C           2.4776407    -0.8074864     0.2466072
H           2.1714101    -1.3688674     1.1326227
C           3.6938477     0.0597874     0.4073914
H           3.5447672     0.8150454     1.1913747
H           3.9385991     0.5832569    -0.5232886
H           4.5713343    -0.5304449     0.7054658
C           0.5095828    -1.7767034    -1.0286102
C           0.1768395    -2.0104606    -2.5103385
H          -0.7165458    -2.6353978    -2.6219565
H           1.0030592    -2.5058665    -3.0338494
H          -0.0172641    -1.0574155    -3.0191739
C          -0.6827073    -1.1094385    -0.3121269
H          -0.8869240    -0.1187873    -0.7368692
H          -0.4791230    -0.9772353     0.7557058
H          -1.5917523    -1.7153844    -0.4156020
H           0.6768593    -2.7542014    -0.5533763
18
183_C6H12_2-0-8-9 (-150,) energy =    -235.8531206
C           1.7228753    -0.8744993    -0.8399333
H           1.8956433    -0.1478855    -1.6382635
C           2.5411295    -0.8723543     0.2156752
H           2.3630093    -1.5905511     1.0195173
C           3.7226890     0.0377498     0.3971345
H           3.6232791     0.6438459     1.3081836
H           3.8369518     0.7209279    -0.4515378
H           4.6560377    -0.5323834     0.5017947
C           0.4908374    -1.7412503    -0.9926925
C           0.2218119    -2.0674959    -2.4708848
H          -0.6615808    -2.7072669    -2.5801178
H           1.0729527    -2.5838824    -2.9297337
H           0.0401865    -1.1489127    -3.0436700
C          -0.7394633    -1.0497212    -0.3676407
H          -0.9359534    -0.0868744    -0.8560171
H          -0.5823804    -0.8560553     0.6986354
H          -1.6372770    -1.6709991    -0.4777061
H           0.6574824    -2.6823526    -0.4497162
18
183_C6H12_2-0-8-9 (-135,) energy =    -235.8543085
C           1.6640578    -0.8025990    -0.7797547
H           1.7315557     0.0327194    -1.4824334
C           2.5893352    -0.9159017     0.1765688
H           2.5146747    -1.7469180     0.8815398
C           3.7562648     0.0103938     0.3714057
H           3.7333524     0.4770675     1.3658544
H           3.7632747     0.8106838    -0.3765897
H           4.7114492    -0.5278730     0.3010335
C           0.4622192    -1.7014697    -0.9502403
C           0.2784163    -2.1065925    -2.4234960
H          -0.5837226    -2.7731773    -2.5444095
H           1.1647417    -2.6227483    -2.8093536
H           0.1061577    -1.2229297    -3.0515064
C          -0.8108800    -1.0101104    -0.4207475
H          -1.0053903    -0.0778454    -0.9663412
H          -0.7111957    -0.7606604     0.6409724
H          -1.6886705    -1.6570230    -0.5423235
H           0.6251651    -2.6114261    -0.3555344
18
183_C6H12_2-0-8-9 (-120,) energy =    -235.8548349
C           1.6017890    -0.7374548    -0.6999890
H           1.5880152     0.1790151    -1.2969343
C           2.6225714    -0.9484387     0.1347940
H           2.6316310    -1.8645187     0.7294196
C           3.7873029    -0.0206184     0.3360450
H           3.8586297     0.3102594     1.3813106
H           3.7049992     0.8707785    -0.2953298
H           4.7389102    -0.5163096     0.0997591
C           0.4263920    -1.6618246    -0.9031981
C           0.3428746    -2.1315998    -2.3678541
H          -0.5027424    -2.8146359    -2.5139524
H           1.2589142    -2.6508358    -2.6699946
H           0.2025878    -1.2790151    -3.0449113
C          -0.8876712    -0.9814028    -0.4742851
H          -1.0720262    -0.0766689    -1.0679228
H          -0.8549476    -0.6876984     0.5804961
H          -1.7430405    -1.6529676    -0.6174413
H           0.5750432    -2.5468366    -0.2681371
18
183_C6H12_2-0-8-9 (-105,) energy =    -235.8545031
C           1.5445388    -0.6867958    -0.6074037
H           1.4600648     0.2957013    -1.0805902
C           2.6495310    -0.9749060     0.0850621
H           2.7338665    -1.9591211     0.5511918
C           3.8119746    -0.0458523     0.2932231
H           3.9871153     0.1436847     1.3611484
H           3.6484318     0.9190243    -0.1989674
H           4.7419553    -0.4751322    -0.1043548
C           0.3910816    -1.6298000    -0.8533061
C           0.4113762    -2.1534940    -2.3030313
H          -0.4217736    -2.8443392    -2.4825949
H           1.3475746    -2.6797126    -2.5172963
H           0.3200208    -1.3277925    -3.0205367
C          -0.9550471    -0.9590784    -0.5278199
H          -1.1239032    -0.0869618    -1.1728706
H          -0.9864379    -0.6161655     0.5123126
H          -1.7890276    -1.6537440    -0.6838616
H           0.5126622    -2.4946246    -0.1851163
18
183_C6H12_2-0-8-9 (-90,) energy =    -235.8534488
C           1.4960117    -0.6523934    -0.5128363
H           1.3474687     0.3818121    -0.8353812
C           2.6718761    -0.9947578     0.0199080
H           2.8244892    -2.0304077     0.3325662
C           3.8269379    -0.0616156     0.2488765
H           4.1017599    -0.0166832     1.3116884
H           3.5930990     0.9556777    -0.0834387
H           4.7232006    -0.3962406    -0.2914746
C           0.3564405    -1.6040184    -0.8059636
C           0.4736842    -2.1791261    -2.2321808
H          -0.3464848    -2.8771730    -2.4422906
H           1.4218878    -2.7109928    -2.3617407
H           0.4336721    -1.3801186    -2.9836733
C          -1.0070884    -0.9300341    -0.5866731
H          -1.1355903    -0.0769675    -1.2657510
H          -1.1066986    -0.5576265     0.4392282
H          -1.8288471    -1.6307480    -0.7751497
H           0.4349464    -2.4497707    -0.1071454
18
183_C6H12_2-0-8-9 (-75,) energy =    -235.8520595
C           1.4596759    -0.6435719    -0.4247070
H           1.2503798     0.4216610    -0.5511714
C           2.6927192    -1.0125531    -0.0679584
H           2.9103221    -2.0767796     0.0507476
C           3.8336664    -0.0746952     0.2073527
H           4.2108881    -0.1914050     1.2326635
H           3.5343531     0.9706081     0.0738999
H           4.6825817    -0.2716110    -0.4618572
C           0.3237669    -1.5919434    -0.7629629
C           0.5165567    -2.2223449    -2.1569788
H          -0.2988170    -2.9194157    -2.3881783
H           1.4629970    -2.7700691    -2.2119967
H           0.5322079    -1.4514772    -2.9377794
C          -1.0388196    -0.8925474    -0.6504152
H          -1.1141898    -0.0656332    -1.3686862
H          -1.1923629    -0.4779685     0.3526675
H          -1.8593418    -1.5888558    -0.8581252
H           0.3412810    -2.4150303    -0.0330669
18
183_C6H12_2-0-8-9 (-60,) energy =    -235.8510086
C           1.4405316    -0.6475438    -0.3425830
H           1.1777290     0.4067355    -0.2288956
C           2.7159930    -1.0020683    -0.1652582
H           2.9952897    -2.0524212    -0.2749645
C           3.8325174    -0.0629189     0.1935811
H           4.3055711    -0.3471341     1.1436870
H           3.4739637     0.9677894     0.2893608
H           4.6260634    -0.0762177    -0.5662829
C           0.3040724    -1.5845933    -0.7250384
C           0.5559713    -2.2745627    -2.0796343
H          -0.2548436    -2.9741126    -2.3182798
H           1.4960984    -2.8358033    -2.0731179
H           0.6153724    -1.5354722    -2.8879828
C          -1.0410412    -0.8433027    -0.7277072
H          -1.0458896    -0.0456723    -1.4819544
H          -1.2440788    -0.3826322     0.2462995
H          -1.8682418    -1.5244295    -0.9575876
H           0.2439431    -2.3771767     0.0365739
18
183_C6H12_2-0-8-9 (-45,) energy =    -235.8509014
C           1.4292885    -0.6716883    -0.2704243
H           1.1328327     0.3150572     0.0930261
C           2.7312906    -0.9705071    -0.2702988
H           3.0566361    -1.9524978    -0.6180172
C           3.8257924    -0.0451236     0.1814915
H           4.3972820    -0.4785662     1.0138895
H           3.4250296     0.9190637     0.5129251
H           4.5466688     0.1464946    -0.6252517
C           0.2892857    -1.5880315    -0.6907249
C           0.5775216    -2.3391920    -2.0024658
H          -0.2545336    -3.0066649    -2.2573003
H           1.4830080    -2.9510949    -1.9328037
H           0.7144841    -1.6332721    -2.8302224
C          -1.0234792    -0.7955320    -0.8025443
H          -0.9518442    -0.0298071    -1.5855924
H          -1.2640195    -0.2879930     0.1392899
H          -1.8628997    -1.4538623    -1.0537547
H           0.1490577    -2.3417523     0.1004997
18
183_C6H12_2-0-8-9 (-30,) energy =    -235.8517695
C           1.4120918    -0.7070186    -0.2033057
H           1.1106284     0.1736732     0.3693636
C           2.7201130    -0.9239257    -0.3670022
H           3.0557052    -1.7999637    -0.9228492
C           3.8092048    -0.0299124     0.1563214
H           4.4758918    -0.5723887     0.8408736
H           3.3988579     0.8304182     0.6962822
H           4.4411184     0.3505577    -0.6579973
C           0.2685369    -1.5947117    -0.6610670
C           0.5860188    -2.4029241    -1.9283992
H          -0.2720535    -3.0223516    -2.2143439
H           1.4407513    -3.0730775    -1.7864294
H           0.8184725    -1.7345767    -2.7658852
C          -1.0038806    -0.7530442    -0.8696995
H          -0.8613719    -0.0236910    -1.6770190
H          -1.2680295    -0.1980002     0.0384286
H          -1.8572094    -1.3873444    -1.1360297
H           0.0533812    -2.3083858     0.1513453
18
183_C6H12_2-0-8-9 (-15,) energy =    -235.8529201
C           1.3986487    -0.7612942    -0.1319981
H           1.1179214     0.0044825     0.5958516
C           2.6922171    -0.8839873    -0.4423569
H           3.0049456    -1.6430161    -1.1593473
C           3.7932916    -0.0315597     0.1238759
H           4.5410755    -0.6425840     0.6480330
H           3.4057196     0.7086417     0.8323832
H           4.3307716     0.5069914    -0.6687581
C           0.2444664    -1.6038545    -0.6343117
C           0.5839609    -2.4592059    -1.8619514
H          -0.2881686    -3.0447541    -2.1744077
H           1.3979723    -3.1633754    -1.6572344
H           0.8878738    -1.8281602    -2.7057379
C          -0.9763891    -0.7079039    -0.9216273
H          -0.7643515    -0.0127254    -1.7433211
H          -1.2498504    -0.1118831    -0.0427312
H          -1.8482362    -1.3095621    -1.2040977
H          -0.0441432    -2.2849980     0.1837516
18
183_C6H12_2-0-8-9 (0,) energy =    -235.8535274
C           1.3951251    -0.8241724    -0.0617538
H           1.1425066    -0.1777848     0.7829026
C           2.6605208    -0.8304105    -0.4898932
H           2.9406849    -1.4651443    -1.3303726
C           3.7709243    -0.0105359     0.1056124
H           4.5857134    -0.6488453     0.4742816
H           3.4160525     0.6008334     0.9425042
H           4.2152353     0.6623790    -0.6406965
C           0.2297547    -1.6154810    -0.6136684
C           0.5874137    -2.5161037    -1.8017492
H          -0.2908595    -3.0828059    -2.1308984
H           1.3724806    -3.2350188    -1.5422885
H           0.9405165    -1.9234712    -2.6545519
C          -0.9311066    -0.6657692    -0.9736300
H          -0.6460433    -0.0008955    -1.7979291
H          -1.2127187    -0.0374485    -0.1203328
H          -1.8186677    -1.2304172    -1.2830479
H          -0.1315237    -2.2651932     0.2009639
18
183_C6H12_2-0-8-9 (15,) energy =    -235.8532248
C           1.4002503    -0.9013192     0.0002877
H           1.1909533    -0.3832958     0.9397926
C           2.6219069    -0.7774844    -0.5259078
H           2.8545607    -1.2774734    -1.4662139
C           3.7466405     0.0057518     0.0914220
H           4.6158920    -0.6344044     0.2958030
H           3.4418618     0.4728825     1.0343061
H           4.0960050     0.8003720    -0.5822292
C           0.2146499    -1.6326818    -0.5912124
C           0.5698284    -2.5819199    -1.7423705
H          -0.3169448    -3.1374840    -2.0679686
H           1.3337423    -3.3069541    -1.4409591
H           0.9503332    -2.0323881    -2.6122335
C          -0.8747499    -0.6255330    -1.0134348
H          -0.5179227     0.0054065    -1.8362185
H          -1.1523155     0.0346012    -0.1832997
H          -1.7808792    -1.1448388    -1.3483518
H          -0.2156142    -2.2461573     0.2171042
18
183_C6H12_2-0-8-9 (30,) energy =    -235.8521591
C           1.4144496    -0.9700948     0.0379434
H           1.2657237    -0.6073341     1.0579026
C           2.5789066    -0.6997276    -0.5586733
H           2.7495567    -1.0372825    -1.5815693
C           3.7212417     0.0376645     0.0819162
H           4.6296780    -0.5795267     0.1139915
H           3.4807188     0.3389809     1.1073474
H           3.9790589     0.9429194    -0.4849441
C           0.2063202    -1.6438550    -0.5830949
C           0.5498409    -2.6462215    -1.6943201
H          -0.3543655    -3.1610186    -2.0393089
H           1.2606004    -3.4010194    -1.3413008
H           0.9923196    -2.1484281    -2.5658682
C          -0.8075497    -0.5886445    -1.0706342
H          -0.3842844    -0.0018399    -1.8944982
H          -1.0750415     0.1090392    -0.2685709
H          -1.7298430    -1.0644956    -1.4261351
H          -0.2860623    -2.2123907     0.2209281
18
183_C6H12_2-0-8-9 (45,) energy =    -235.8510219
C           1.4281378    -1.0320329     0.0695050
H           1.3724055    -0.8641332     1.1471369
C           2.5192216    -0.6090009    -0.5752471
H           2.5910446    -0.7543054    -1.6544860
C           3.6992591     0.0586026     0.0732526
H           4.6240177    -0.5107268    -0.0937110
H           3.5571805     0.1634973     1.1544655
H           3.8701900     1.0605161    -0.3442713
C           0.1947882    -1.6548933    -0.5647144
C           0.5252097    -2.7185340    -1.6251725
H          -0.3922039    -3.1862817    -2.0020962
H           1.1654463    -3.5042268    -1.2101635
H           1.0465825    -2.2819884    -2.4855120
C          -0.7411745    -0.5686468    -1.1322544
H          -0.2537839    -0.0321393    -1.9550053
H          -1.0060689     0.1691162    -0.3663333
H          -1.6702024    -1.0099554    -1.5143209
H          -0.3542205    -2.1652124     0.2396053
18
183_C6H12_2-0-8-9 (60,) energy =    -235.8504773
C           1.4433211    -1.0753966     0.0847999
H           1.5102631    -1.1402486     1.1724000
C           2.4509062    -0.4949242    -0.5731620
H           2.4035685    -0.4166465    -1.6613587
C           3.6836967     0.0775503     0.0672854
H           4.5934418    -0.4127863    -0.3058053
H           3.6599795    -0.0378752     1.1564624
H           3.7913515     1.1476080    -0.1578014
C           0.1836058    -1.6489693    -0.5501028
C           0.4978747    -2.7759284    -1.5520306
H          -0.4257356    -3.2106813    -1.9536663
H           1.0751629    -3.5775491    -1.0785092
H           1.0850321    -2.3990520    -2.3979157
C          -0.6774599    -0.5516237    -1.2051973
H          -0.1414409    -0.0787557    -2.0367274
H          -0.9332071     0.2344873    -0.4861845
H          -1.6114277    -0.9697881    -1.6007173
H          -0.4137447    -2.0913523     0.2587040
18
183_C6H12_2-0-8-9 (75,) energy =    -235.8507285
C           1.4559709    -1.1062008     0.0734562
H           1.6479735    -1.4045966     1.1060678
C           2.3827206    -0.3720121    -0.5488237
H           2.2196039    -0.0696230    -1.5849860
C           3.6687353     0.0974875     0.0707140
H           4.5397080    -0.2762666    -0.4852009
H           3.7605960    -0.2401775     1.1088535
H           3.7407880     1.1938296     0.0630452
C           0.1697044    -1.6336492    -0.5450207
C           0.4528816    -2.8274240    -1.4796770
H          -0.4806612    -3.2529670    -1.8685757
H           0.9974266    -3.6228379    -0.9583387
H           1.0646468    -2.5111282    -2.3327779
C          -0.6308570    -0.5447273    -1.2817139
H          -0.0733161    -0.1509530    -2.1397661
H          -0.8594639     0.2965442    -0.6185518
H          -1.5769902    -0.9489690    -1.6614932
H          -0.4594620    -2.0015883     0.2770272
18
183_C6H12_2-0-8-9 (90,) energy =    -235.8517127
C           1.4862629    -1.1424452     0.0468070
H           1.7836193    -1.6321676     0.9771231
C           2.3372658    -0.2688735    -0.4988769
H           2.0732033     0.2250453    -1.4348707
C           3.6638703     0.1207317     0.0904702
H           4.4884410    -0.1043316    -0.6000089
H           3.8570984    -0.4082056     1.0301805
H           3.7118896     1.1996706     0.2924038
C           0.1743351    -1.6239851    -0.5449871
C           0.4068056    -2.8809966    -1.4100708
H          -0.5443688    -3.2922338    -1.7704044
H           0.9227525    -3.6672160    -0.8466774
H           1.0264688    -2.6346062    -2.2801482
C          -0.5719252    -0.5487324    -1.3510052
H          -0.0117552    -0.2571351    -2.2474617
H          -0.7405973     0.3528456    -0.7522834
H          -1.5456377    -0.9257889    -1.6850640
H          -0.4737510    -1.9160649     0.2940613
18
183_C6H12_2-0-8-9 (105,) energy =    -235.8528915
C           1.5273022    -1.1817472    -0.0084323
H           1.9074020    -1.8060304     0.8043231
C           2.3039683    -0.1888901    -0.4508856
H           1.9545603     0.4437715    -1.2670800
C           3.6570916     0.1550167     0.1060959
H           4.4350187     0.0875603    -0.6669460
H           3.9372176    -0.5156893     0.9257325
H           3.6842250     1.1853028     0.4867843
C           0.1885543    -1.6179302    -0.5657934
C           0.3513393    -2.9310589    -1.3606364
H          -0.6219677    -3.3126013    -1.6927739
H           0.8298284    -3.7105847    -0.7560713
H           0.9758499    -2.7659418    -2.2463777
C          -0.5098988    -0.5532024    -1.4228068
H           0.0577531    -0.3399286    -2.3367126
H          -0.6308730     0.3872041    -0.8739444
H          -1.5036353    -0.8993720    -1.7291795
H          -0.4654493    -1.8351928     0.2930017
18
183_C6H12_2-0-8-9 (120,) energy =    -235.8535238
C           1.5762629    -1.2178840    -0.0789930
H           2.0260942    -1.9348366     0.6128689
C           2.2814461    -0.1295501    -0.3997156
H           1.8590760     0.6016130    -1.0887929
C           3.6514914     0.1905666     0.1296338
H           4.3828128     0.2837979    -0.6850657
H           4.0089287    -0.5841692     0.8167397
H           3.6588308     1.1491464     0.6665153
C           0.2075863    -1.6135195    -0.5878333
C           0.2853104    -2.9760902    -1.3070767
H          -0.7131622    -3.3240739    -1.5978104
H           0.7349828    -3.7427622    -0.6650408
H           0.8973770    -2.8992531    -2.2137197
C          -0.4601368    -0.5613794    -1.4815713
H           0.1162726    -0.3978360    -2.4003425
H          -0.5565325     0.4014484    -0.9676323
H          -1.4639624    -0.8892860    -1.7742621
H          -0.4353023    -1.7553240     0.2965204
18
183_C6H12_2-0-8-9 (135,) energy =    -235.8532416
C           1.6302193    -1.2454779    -0.1630620
H           2.1425243    -2.0332805     0.3954166
C           2.2718063    -0.0874905    -0.3422076
H           1.7853227     0.7180760    -0.8920138
C           3.6573765     0.2107755     0.1587391
H           4.3354837     0.4650132    -0.6674948
H           4.0842404    -0.6435392     0.6954313
H           3.6586502     1.0730418     0.8397942
C           0.2314067    -1.6059792    -0.6155268
C           0.2217822    -3.0093289    -1.2526993
H          -0.8001113    -3.3226123    -1.4967077
H           0.6500493    -3.7567406    -0.5743846
H           0.8104735    -3.0225228    -2.1782836
C          -0.4164244    -0.5707504    -1.5422122
H           0.1666679    -0.4466678    -2.4629437
H          -0.4980860     0.4096881    -1.0601919
H          -1.4267116    -0.8877935    -1.8246028
H          -0.3896405    -1.6710539     0.2943088
18
183_C6H12_2-0-8-9 (150,) energy =    -235.8521878
C           1.6717908    -1.2515035    -0.2504968
H           2.2512664    -2.0900875     0.1440013
C           2.2522841    -0.0483783    -0.2701825
H           1.6985046     0.8113856    -0.6479514
C           3.6558936     0.2330478     0.1882618
H           4.2661347     0.6526718    -0.6233640
H           4.1512464    -0.6750791     0.5488730
H           3.6689809     0.9713995     1.0018923
C           0.2483500    -1.5945548    -0.6459086
C           0.1739324    -3.0320111    -1.1919958
H          -0.8632860    -3.3222347    -1.3956128
H           0.5898754    -3.7501727    -0.4754444
H           0.7402680    -3.1275642    -2.1270780
C          -0.3882941    -0.5940338    -1.6198813
H           0.1820901    -0.5413503    -2.5550398
H          -0.4342094     0.4151351    -1.1965486
H          -1.4136663    -0.8950037    -1.8637130
H          -0.3532072    -1.5819886     0.2791496
18
183_C6H12_2-0-8-9 (165,) energy =    -235.8510899
C           1.7047367    -1.2473379    -0.3257911
H           2.3515909    -2.1103534    -0.1506256
C           2.2346681    -0.0312041    -0.1681092
H           1.6118390     0.8510176    -0.3232442
C           3.6623233     0.2401481     0.2152268
H           4.1758552     0.8390517    -0.5495012
H           4.2255468    -0.6896101     0.3510680
H           3.7222634     0.8122300     1.1514533
C           0.2595597    -1.5745515    -0.6675219
C           0.1305471    -3.0376255    -1.1229137
H          -0.9168290    -3.3031617    -1.3063490
H           0.5245225    -3.7251853    -0.3650709
H           0.6882284    -3.2103002    -2.0524005
C          -0.3525206    -0.6199056    -1.7056689
H           0.2000291    -0.6686524    -2.6515263
H          -0.3380389     0.4201213    -1.3631914
H          -1.3970279    -0.8864642    -1.9064239
H          -0.3309772    -1.4759840     0.2582507
18
183_C6H12_2-0-8-9 (180,) energy =    -235.8508719
C           1.7250610    -1.2346108    -0.3894092
H           2.4239040    -2.0695622    -0.4781055
C           2.2137585    -0.0398139    -0.0462244
H           1.5307843     0.8068069     0.0515304
C           3.6603946     0.2528665     0.2352502
H           4.0513424     1.0253302    -0.4413175
H           4.2804537    -0.6428106     0.1195461
H           3.8007066     0.6327615     1.2566507
C           0.2653164    -1.5500010    -0.6844764
C           0.0913955    -3.0335917    -1.0440945
H          -0.9629376    -3.2787386    -1.2152950
H           0.4630919    -3.6845888    -0.2438414
H           0.6449412    -3.2801317    -1.9593417
C          -0.3090066    -0.6531018    -1.7977882
H           0.2311256    -0.8102172    -2.7392419
H          -0.2283205     0.4084814    -1.5416665
H          -1.3685904    -0.8778861    -1.9718237
H          -0.3197925    -1.3579912     0.2280510
