33
018_C12H19N2+_0-10-11-26 (-165,) energy =    -577.9849673
C          -0.0953811    -0.4690272    -1.4697798
H           0.0925397    -0.3908478    -2.5387224
C          -1.3781363    -0.7728501    -1.0167291
H          -2.1801973    -0.9257389    -1.7329919
C          -1.6307748    -0.8813726     0.3528722
H          -2.6290778    -1.1213443     0.7066188
C          -0.5950285    -0.6720659     1.2628453
H          -0.7857751    -0.7409859     2.3302691
C           0.6882449    -0.3589010     0.8078342
H           1.4830782    -0.1592614     1.5207469
C           0.9548290    -0.2728443    -0.5631102
C           2.3093135     0.1604866    -1.1051773
H           2.2441417     1.2206079    -1.3604259
H           2.5272117    -0.3732167    -2.0475759
N           5.8872858    -0.8095051     1.0563274
H           6.4194558    -1.1890554     0.2630556
H           6.4950716    -0.8913019     1.8791931
C           5.5712899     0.6502875     0.7801091
H           6.5238861     1.1541617     0.6017743
H           5.1077587     1.0420926     1.6885985
C           4.6202054     0.7878663    -0.4162858
H           5.1496027     0.4053886    -1.3149050
C           4.3514814     2.2862144    -0.6136661
H           5.2925924     2.8457839    -0.5924210
H           3.6994941     2.6686624     0.1782127
H           3.8850802     2.4893694    -1.5791817
N           3.4115087    -0.0002777    -0.1378716
C           3.7336196    -1.4155362     0.0289487
H           4.2152414    -1.8474221    -0.8725353
H           2.8071945    -1.9727723     0.1920316
C           4.6270623    -1.6360671     1.2380618
H           4.9307383    -2.6792413     1.3532296
H           4.1543342    -1.2817185     2.1563419
33
018_C12H19N2+_0-10-11-26 (-150,) energy =    -577.9867055
C          -0.0258016    -0.6256196    -1.4553610
H           0.2110943    -0.6600198    -2.5166054
C          -1.2939265    -1.0109466    -1.0186978
H          -2.0347965    -1.3416462    -1.7407934
C          -1.6068799    -0.9752497     0.3410616
H          -2.5923285    -1.2781437     0.6824952
C          -0.6479591    -0.5441807     1.2596803
H          -0.8878085    -0.5047050     2.3186472
C           0.6167378    -0.1497838     0.8210080
H           1.3541004     0.2068728     1.5349725
C           0.9440797    -0.1979629    -0.5407215
C           2.2775980     0.3166924    -1.0556398
H           2.1984118     1.3977434    -1.1944145
H           2.4885243    -0.1152300    -2.0501089
N           5.8594973    -0.8728103     0.9923194
H           6.3558138    -1.2547536     0.1772739
H           6.4817334    -1.0024030     1.7980341
C           5.6022657     0.6058471     0.7594150
H           6.5716137     1.0718549     0.5686531
H           5.1791013     0.9948354     1.6885436
C           4.6285034     0.8132563    -0.4082457
H           5.1176605     0.4297059    -1.3291154
C           4.4206491     2.3256277    -0.5671946
H           5.3860957     2.8425075    -0.5665989
H           3.8130961     2.7208550     0.2533403
H           3.9318991     2.5677817    -1.5124814
N           3.3937391     0.0710131    -0.1192401
C           3.6584837    -1.3600678     0.0006339
H           4.1016774    -1.7877773    -0.9225083
H           2.7131504    -1.8819575     0.1712696
C           4.5681323    -1.6484466     1.1829160
H           4.8288681    -2.7061492     1.2665385
H           4.1304971    -1.2961874     2.1191719
33
018_C12H19N2+_0-10-11-26 (-135,) energy =    -577.9876560
C           0.0760012    -0.7827921    -1.4076097
H           0.3765798    -0.9262342    -2.4431654
C          -1.1723391    -1.2404774    -0.9799163
H          -1.8333849    -1.7390123    -1.6828609
C          -1.5661320    -1.0594543     0.3459451
H          -2.5361314    -1.4154520     0.6804506
C          -0.7092978    -0.4142917     1.2418246
H          -1.0145679    -0.2637608     2.2735801
C           0.5334641     0.0491452     0.8120557
H           1.1943542     0.5607766     1.5069294
C           0.9399929    -0.1349998    -0.5176241
C           2.2600701     0.4276863    -1.0091792
H           2.1829901     1.5164906    -1.0565457
H           2.4592947     0.0747370    -2.0364720
N           5.8404944    -0.9560831     0.9251506
H           6.3086090    -1.3293103     0.0896874
H           6.4720287    -1.1315772     1.7147430
C           5.6302864     0.5369768     0.7424216
H           6.6111549     0.9756152     0.5454897
H           5.2395421     0.9110102     1.6916426
C           4.6405091     0.8129037    -0.3972776
H           5.0967650     0.4411023    -1.3397317
C           4.4821396     2.3351554    -0.5084675
H           5.4652841     2.8169586    -0.5314559
H           3.9203992     2.7299356     0.3443898
H           3.9673123     2.6195354    -1.4278048
N           3.3869028     0.1043730    -0.1048114
C           3.6058324    -1.3372515    -0.0386712
H           4.0188672    -1.7485705    -0.9832269
H           2.6474110    -1.8343929     0.1323993
C           4.5262953    -1.6926965     1.1166003
H           4.7518017    -2.7606865     1.1640208
H           4.1171827    -1.3535335     2.0703947
33
018_C12H19N2+_0-10-11-26 (-120,) energy =    -577.9879931
C           0.1933272    -0.9080164    -1.3210053
H           0.5689764    -1.1550573    -2.3116611
C          -1.0310779    -1.4293498    -0.8951223
H          -1.5974943    -2.0830168    -1.5520735
C          -1.5235338    -1.1082660     0.3695153
H          -2.4762053    -1.5106276     0.7013294
C          -0.7904056    -0.2620612     1.2068963
H          -1.1744101    -0.0037164     2.1897351
C           0.4284034     0.2609347     0.7787787
H           0.9945004     0.9239907     1.4284604
C           0.9315934    -0.0559161    -0.4917545
C           2.2445100     0.5364907    -0.9610728
H           2.1739463     1.6258383    -0.9340568
H           2.4325075     0.2486138    -2.0105333
N           5.8269787    -1.0005605     0.8605647
H           6.2695282    -1.3630176     0.0066324
H           6.4682170    -1.2133497     1.6329476
C           5.6523183     0.5015609     0.7211434
H           6.6401671     0.9199558     0.5150672
H           5.2908129     0.8602259     1.6876958
C           4.6468526     0.8323450    -0.3899371
H           5.0745642     0.4754088    -1.3515412
C           4.5252194     2.3604193    -0.4578284
H           5.5197222     2.8173284    -0.4953207
H           3.9970918     2.7472795     0.4198353
H           3.9934158     2.6812586    -1.3552498
N           3.3818025     0.1471323    -0.0915009
C           3.5662134    -1.2996823    -0.0714423
H           3.9537192    -1.6945579    -1.0340367
H           2.6000724    -1.7803738     0.1021754
C           4.4977297    -1.7083512     1.0571455
H           4.6967711    -2.7825405     1.0731097
H           4.1138745    -1.3834813     2.0262679
33
018_C12H19N2+_0-10-11-26 (-105,) energy =    -577.9873569
C           0.3089559    -1.0331225    -1.2075717
H           0.7734477    -1.3824773    -2.1276603
C          -0.8985962    -1.5940128    -0.7845735
H          -1.3616215    -2.3831217    -1.3699271
C          -1.5097369    -1.1342436     0.3820577
H          -2.4514139    -1.5651250     0.7094384
C          -0.9118435    -0.1116208     1.1242114
H          -1.3887507     0.2545611     2.0288751
C           0.2922896     0.4472973     0.6995841
H           0.7539326     1.2450482     1.2768295
C           0.9126478    -0.0038935    -0.4742170
C           2.2272053     0.6025299    -0.9168003
H           2.1680124     1.6879474    -0.8245438
H           2.4058825     0.3730572    -1.9823625
N           5.8223774    -1.0595308     0.7779632
H           6.2466641    -1.3898356    -0.0979958
H           6.4736574    -1.3118762     1.5297426
C           5.6617888     0.4485769     0.7055331
H           6.6505275     0.8654652     0.5006038
H           5.3200952     0.7693469     1.6923834
C           4.6416857     0.8363301    -0.3732663
H           5.0500544     0.5168633    -1.3563845
C           4.5370964     2.3673126    -0.3736014
H           5.5362778     2.8144687    -0.4040114
H           4.0247125     2.7214476     0.5268997
H           3.9981653     2.7327526    -1.2494462
N           3.3735977     0.1520241    -0.0841189
C           3.5433621    -1.2949611    -0.1288171
H           3.9117744    -1.6534009    -1.1133081
H           2.5765253    -1.7754006     0.0404907
C           4.4883566    -1.7602530     0.9662582
H           4.6753105    -2.8362404     0.9335712
H           4.1236599    -1.4724009     1.9542919
33
018_C12H19N2+_0-10-11-26 (-90,) energy =    -577.9857782
C           0.4170845    -1.1328144    -1.0530269
H           0.9708075    -1.5729368    -1.8804093
C          -0.7865774    -1.7124413    -0.6471157
H          -1.1495925    -2.6082676    -1.1426490
C          -1.5266376    -1.1329251     0.3844760
H          -2.4666062    -1.5783203     0.6968892
C          -1.0602785     0.0275550     1.0062753
H          -1.6366815     0.4869905     1.8040600
C           0.1430626     0.6029161     0.5993008
H           0.5014925     1.5061078     1.0877381
C           0.8927929     0.0353534    -0.4400536
C           2.2138689     0.6569503    -0.8415480
H           2.1595167     1.7324927    -0.6735384
H           2.3852338     0.5019953    -1.9223798
N           5.8464418    -1.0950673     0.6941691
H           6.2488241    -1.3906632    -0.2042432
H           6.5152205    -1.3773406     1.4194798
C           5.6853424     0.4142349     0.6853125
H           6.6689002     0.8391734     0.4720865
H           5.3686545     0.6961056     1.6921689
C           4.6391407     0.8436773    -0.3518108
H           5.0229878     0.5627240    -1.3565172
C           4.5404491     2.3739940    -0.2898937
H           5.5406569     2.8184600    -0.3258287
H           4.0508938     2.6944390     0.6355851
H           3.9835161     2.7754178    -1.1381979
N           3.3763106     0.1491924    -0.0609520
C           3.5442759    -1.2933684    -0.1659900
H           3.8874043    -1.6156273    -1.1722878
H           2.5846037    -1.7831653     0.0132476
C           4.5160310    -1.8004151     0.8868262
H           4.6994891    -2.8746157     0.8080341
H           4.1757042    -1.5504181     1.8936733
33
018_C12H19N2+_0-10-11-26 (-75,) energy =    -577.9826783
C           0.5205068    -1.1830689    -0.9127266
H           1.1631903    -1.6739651    -1.6406140
C          -0.6953660    -1.7780473    -0.5737186
H          -0.9652983    -2.7374652    -1.0056552
C          -1.5680239    -1.1352912     0.3062032
H          -2.5165289    -1.5957883     0.5664158
C          -1.2210122     0.1066447     0.8394671
H          -1.8973973     0.6169684     1.5189430
C          -0.0026795     0.6963463     0.5009984
H           0.2625601     1.6607921     0.9276877
C           0.8807623     0.0687451    -0.3880945
C           2.2112149     0.7271665    -0.6939496
H           2.1469393     1.7753877    -0.4032329
H           2.3862348     0.7035349    -1.7863362
N           5.9007879    -1.1191875     0.6000286
H           6.2434314    -1.4017752    -0.3269429
H           6.6101490    -1.4209805     1.2773579
C           5.7518729     0.3902435     0.6283158
H           6.7237411     0.8132834     0.3639805
H           5.4985302     0.6555033     1.6573960
C           4.6493619     0.8454776    -0.3363703
H           4.9713437     0.5834679    -1.3678982
C           4.5683478     2.3753815    -0.2379429
H           5.5687880     2.8118358    -0.3263410
H           4.1400759     2.6807535     0.7224011
H           3.9637893     2.7982690    -1.0418989
N           3.3974486     0.1553908     0.0076004
C           3.5464243    -1.2851866    -0.1225754
H           3.8220445    -1.6049448    -1.1506090
H           2.5995742    -1.7710398     0.1186095
C           4.5772605    -1.8129371     0.8625037
H           4.7431107    -2.8878486     0.7581875
H           4.3010114    -1.5739089     1.8914207
33
018_C12H19N2+_0-10-11-26 (-60,) energy =    -577.9834039
C           0.5881509    -0.2184633     1.0185703
H           1.1564334    -0.2131003     1.9457100
C          -0.6939711     0.3278129     0.9882898
H          -1.1231900     0.7524465     1.8914378
C          -1.4326196     0.3153445    -0.1980315
H          -2.4337590     0.7357223    -0.2198412
C          -0.8842284    -0.2498343    -1.3494201
H          -1.4567983    -0.2754174    -2.2720467
C           0.4027966    -0.7907732    -1.3162712
H           0.8162646    -1.2472963    -2.2136941
C           1.1583887    -0.7650273    -0.1389807
C           2.5131016    -1.4443413    -0.0739954
H           2.7519701    -1.9019591    -1.0485493
H           2.4521325    -2.2709191     0.6418308
N           6.2658953     0.4745868     0.8619851
H           6.8583940    -0.0834608     0.2341979
H           6.8893425     1.1341308     1.3409418
C           5.2406167     1.2248699     0.0302602
H           5.7940817     1.8158623    -0.7028845
H           4.7112159     1.8876834     0.7186110
C           4.2642872     0.2528337    -0.6446120
H           4.8483184    -0.3814463    -1.3466925
C           3.2916063     1.1020404    -1.4704520
H           3.8554384     1.7607063    -2.1402317
H           2.6534679     1.7111264    -0.8243931
H           2.6459063     0.4800226    -2.0891760
N           3.6311485    -0.5793006     0.3892764
C           4.6377335    -1.3586214     1.1038560
H           5.2172747    -2.0339309     0.4397902
H           4.1472379    -1.9941507     1.8464742
C           5.6001170    -0.4527526     1.8586636
H           6.3875439    -1.0109729     2.3707076
H           5.0698852     0.1850880     2.5688235
33
018_C12H19N2+_0-10-11-26 (-45,) energy =    -577.9845236
C           0.7039139    -0.0543551     0.9158668
H           1.3591186     0.0900109     1.7708014
C          -0.5798297     0.4906300     0.9188815
H          -0.9254070     1.0536051     1.7814530
C          -1.4234039     0.3067110    -0.1796438
H          -2.4239403     0.7290692    -0.1753225
C          -0.9758063    -0.4239985    -1.2806140
H          -1.6256801    -0.5735654    -2.1379460
C           0.3120241    -0.9637366    -1.2841987
H           0.6532290    -1.5358565    -2.1448615
C           1.1640457    -0.7809598    -0.1894760
C           2.5287229    -1.4446739    -0.1711520
H           2.7777556    -1.8270858    -1.1747686
H           2.4781356    -2.3254947     0.4797802
N           6.2334876     0.4743788     0.9126463
H           6.8437996    -0.0454200     0.2693157
H           6.8395014     1.1212608     1.4297436
C           5.2082354     1.2465382     0.1001635
H           5.7623506     1.8777166    -0.5982214
H           4.6596571     1.8702145     0.8097346
C           4.2578306     0.2887575    -0.6281407
H           4.8615364    -0.3075231    -1.3465048
C           3.2770874     1.1486900    -1.4335498
H           3.8344701     1.8246723    -2.0912111
H           2.6359034     1.7396607    -0.7739995
H           2.6329342     0.5338963    -2.0624953
N           3.6244659    -0.5972585     0.3608972
C           4.6308389    -1.3944243     1.0546296
H           5.2279059    -2.0326601     0.3700754
H           4.1384664    -2.0668313     1.7628113
C           5.5703733    -0.5071301     1.8590332
H           6.3608738    -1.0747936     2.3556451
H           5.0222940     0.0906925     2.5901768
33
018_C12H19N2+_0-10-11-26 (-30,) energy =    -577.9842287
C           0.7811206     0.0905569     0.7954905
H           1.5043136     0.3554389     1.5612092
C          -0.5114158     0.6154633     0.8397848
H          -0.7922051     1.2900435     1.6439423
C          -1.4428352     0.2736213    -0.1424263
H          -2.4484008     0.6822895    -0.1071107
C          -1.0741066    -0.5946740    -1.1712343
H          -1.7908583    -0.8637436    -1.9417105
C           0.2203148    -1.1140732    -1.2178004
H           0.5005242    -1.7872024    -2.0257438
C           1.1576972    -0.7804631    -0.2328547
C           2.5383203    -1.4141986    -0.2779417
H           2.7931679    -1.6983518    -1.3117900
H           2.5043582    -2.3559428     0.2838941
N           6.2069666     0.4420980     1.0015822
H           6.8346985    -0.0569799     0.3585431
H           6.7995162     1.0666005     1.5601642
C           5.2102293     1.2488303     0.1869814
H           5.7876107     1.9030584    -0.4701974
H           4.6423691     1.8485521     0.9019845
C           4.2811323     0.3214271    -0.6043902
H           4.9055248    -0.2490751    -1.3259780
C           3.3225823     1.2084692    -1.4074849
H           3.8973451     1.8868334    -2.0472296
H           2.6800885     1.7974191    -0.7476400
H           2.6780747     0.6120001    -2.0544945
N           3.6164124    -0.6008102     0.3297774
C           4.5958722    -1.4260252     1.0276179
H           5.2129516    -2.0428212     0.3412845
H           4.0779814    -2.1193491     1.6963042
C           5.5117184    -0.5701348     1.8915122
H           6.2849648    -1.1575929     2.3921951
H           4.9426357     0.0035360     2.6259603
33
018_C12H19N2+_0-10-11-26 (-15,) energy =    -577.9831966
C           0.8406182     0.2082181     0.6689479
H           1.6140945     0.5866425     1.3299900
C          -0.4673304     0.6885591     0.7713519
H          -0.7053845     1.4492565     1.5098016
C          -1.4651122     0.1942715    -0.0684569
H          -2.4815136     0.5685366     0.0106093
C          -1.1486881    -0.7838617    -1.0141713
H          -1.9177415    -1.1724065    -1.6755343
C           0.1577807    -1.2594052    -1.1179693
H           0.3954874    -2.0169919    -1.8624369
C           1.1636422    -0.7732807    -0.2721620
C           2.5660829    -1.3494147    -0.4063230
H           2.8126842    -1.5068811    -1.4677561
H           2.5698371    -2.3524071     0.0386456
N           6.2003340     0.4123547     1.0810146
H           6.8456645    -0.0854577     0.4545624
H           6.7799729     1.0133557     1.6776313
C           5.2545068     1.2555731     0.2431129
H           5.8709118     1.9143515    -0.3728147
H           4.6670578     1.8491459     0.9473708
C           4.3449365     0.3637206    -0.6092380
H           4.9894657    -0.1936785    -1.3233470
C           3.4261570     1.2858340    -1.4200233
H           4.0297081     1.9610976    -2.0357676
H           2.7818490     1.8790355    -0.7657467
H           2.7834032     0.7150321    -2.0919006
N           3.6296213    -0.5736880     0.2696900
C           4.5596288    -1.4280312     0.9975529
H           5.1978016    -2.0441641     0.3301432
H           3.9978671    -2.1222800     1.6287443
C           5.4490037    -0.6047068     1.9188133
H           6.1892975    -1.2152314     2.4412053
H           4.8571936    -0.0356763     2.6387704
33
018_C12H19N2+_0-10-11-26 (0,) energy =    -577.9825464
C           0.7843979     0.0224120     0.8099367
H           1.5963377     0.5195476     1.3323639
C          -0.5160037     0.0991632     1.3177490
H          -0.6990654     0.6258925     2.2502591
C          -1.5738961    -0.4920034     0.6300485
H          -2.5840607    -0.4329029     1.0241697
C          -1.3264278    -1.1600703    -0.5723567
H          -2.1440575    -1.6230543    -1.1172326
C          -0.0295388    -1.2387126    -1.0747266
H           0.1535986    -1.7697292    -2.0069503
C           1.0397861    -0.6392886    -0.3941855
C           2.4359683    -0.7901682    -0.9853454
H           2.4391971    -0.3188728    -1.9701244
H           2.6520371    -1.8578948    -1.1638108
N           5.9595921     0.2299603     1.2444790
H           6.5564640    -0.5321943     0.8987608
H           6.5285965     0.7650862     1.9101120
C           5.5582111     1.1088000     0.0722870
H           6.4817654     1.4516866    -0.3994613
H           5.0191457     1.9592489     0.4964177
C           4.6667281     0.3394818    -0.9120688
H           5.2722075    -0.4870442    -1.3411252
C           4.3003890     1.3134477    -2.0411815
H           5.1946148     1.8375789    -2.3946794
H           3.5753999     2.0540094    -1.6889421
H           3.8782786     0.7953404    -2.9038919
N           3.5045390    -0.1750239    -0.1749795
C           3.9109178    -1.0860306     0.8915268
H           4.4688718    -1.9642972     0.5059510
H           3.0169858    -1.4727188     1.3884954
C           4.7513379    -0.3721384     1.9377236
H           5.1182709    -1.0465802     2.7150329
H           4.2087141     0.4597415     2.3914254
33
018_C12H19N2+_0-10-11-26 (15,) energy =    -577.9845991
C           0.7464401     0.1667973     0.7278687
H           1.5264841     0.7866321     1.1604780
C          -0.5359309     0.1707563     1.2833016
H          -0.7386406     0.7745140     2.1635968
C          -1.5524043    -0.5911851     0.7089182
H          -2.5491194    -0.5882492     1.1400347
C          -1.2801246    -1.3606315    -0.4249621
H          -2.0641153    -1.9603695    -0.8781860
C           0.0010873    -1.3695877    -0.9733679
H           0.2054876    -1.9823666    -1.8490664
C           1.0254797    -0.5958072    -0.4110349
C           2.4015914    -0.6327727    -1.0614928
H           2.3632954    -0.0290044    -1.9712087
H           2.6341376    -1.6625075    -1.3858232
N           5.9219022     0.1442620     1.2664589
H           6.4817018    -0.6456853     0.9212173
H           6.5054521     0.6353179     1.9531465
C           5.5986829     1.0616960     0.0999148
H           6.5508155     1.3557973    -0.3473451
H           5.1015028     1.9367391     0.5251733
C           4.6849783     0.3589521    -0.9132568
H           5.2474198    -0.5002732    -1.3367663
C           4.4063757     1.3603067    -2.0430665
H           5.3398628     1.8285085    -2.3727118
H           3.7227432     2.1446947    -1.7028943
H           3.9720231     0.8731446    -2.9177129
N           3.4768583    -0.0924579    -0.2086263
C           3.8085041    -1.0458614     0.8474396
H           4.3232383    -1.9470471     0.4548952
H           2.8835043    -1.3885053     1.3189328
C           4.6655893    -0.3990481     1.9226359
H           4.9764199    -1.1059748     2.6955216
H           4.1608109     0.4546851     2.3793503
33
018_C12H19N2+_0-10-11-26 (30,) energy =    -577.9863985
C           0.6971557     0.3199279     0.6137015
H           1.4240773     1.0541824     0.9496558
C          -0.5646968     0.2615406     1.2079829
H          -0.8116035     0.9438351     2.0167114
C          -1.5089251    -0.6644220     0.7619415
H          -2.4909078    -0.7079831     1.2236905
C          -1.1832922    -1.5359902    -0.2789018
H          -1.9097689    -2.2634549    -0.6292231
C           0.0812357    -1.4834466    -0.8658752
H           0.3306114    -2.1734056    -1.6692368
C           1.0293275    -0.5472179    -0.4350488
C           2.3812416    -0.4881528    -1.1275436
H           2.3129849     0.2184768    -1.9585885
H           2.6178182    -1.4716225    -1.5708489
N           5.9115560     0.0593282     1.2539954
H           6.4381575    -0.7468587     0.8944714
H           6.5098078     0.5063140     1.9578862
C           5.6424313     1.0184938     0.1075489
H           6.6111242     1.2766447    -0.3262040
H           5.1847242     1.9063880     0.5500763
C           4.7038064     0.3838037    -0.9273292
H           5.2266828    -0.4928064    -1.3659320
C           4.4826008     1.4193906    -2.0384566
H           5.4408932     1.8426658    -2.3574848
H           3.8417199     2.2338785    -1.6856995
H           4.0245285     0.9713732    -2.9219229
N           3.4697079    -0.0261754    -0.2426831
C           3.7490467    -1.0226743     0.7880603
H           4.2262369    -1.9355385     0.3753224
H           2.8057599    -1.3347221     1.2439965
C           4.6249888    -0.4420769     1.8853030
H           4.8962204    -1.1805201     2.6434913
H           4.1542080     0.4225450     2.3575238
33
018_C12H19N2+_0-10-11-26 (45,) energy =    -577.9875317
C           0.6158953     0.4656054     0.4845693
H           1.2671480     1.3077664     0.7032590
C          -0.6258079     0.3603519     1.1104541
H          -0.9393886     1.1216612     1.8193180
C          -1.4692134    -0.7154327     0.8209898
H          -2.4376758    -0.7941356     1.3061555
C          -1.0622188    -1.6872552    -0.0933178
H          -1.7106842    -2.5280295    -0.3219259
C           0.1849691    -1.5855517    -0.7133737
H           0.4976728    -2.3487278    -1.4226548
C           1.0309336    -0.5051605    -0.4384640
C           2.3615150    -0.3792003    -1.1567820
H           2.2796574     0.4025443    -1.9159550
H           2.5903494    -1.3192117    -1.6892691
N           5.9030852    -0.0511407     1.2553356
H           6.3990544    -0.8675094     0.8758594
H           6.5148279     0.3521731     1.9738149
C           5.6783745     0.9490749     0.1347001
H           6.6585239     1.1785150    -0.2894670
H           5.2561796     1.8428380     0.6000601
C           4.7175693     0.3814352    -0.9185660
H           5.2049803    -0.5042551    -1.3795501
C           4.5419125     1.4524291    -2.0035709
H           5.5181935     1.8359823    -2.3182338
H           3.9433322     2.2890895    -1.6288492
H           4.0577758     1.0471788    -2.8938076
N           3.4656282     0.0033186    -0.2485357
C           3.7016214    -1.0342758     0.7509703
H           4.1463467    -1.9523345     0.3136747
H           2.7454519    -1.3239421     1.1944656
C           4.5940202    -0.5184019     1.8671102
H           4.8323348    -1.2865307     2.6066329
H           4.1540272     0.3513676     2.3590766
33
018_C12H19N2+_0-10-11-26 (60,) energy =    -577.9880031
C           0.4833911     0.5913201     0.3279510
H           1.0329911     1.5251126     0.4181084
C          -0.7416319     0.4379467     0.9744721
H          -1.1472540     1.2543918     1.5652979
C          -1.4539541    -0.7589540     0.8528811
H          -2.4117837    -0.8753412     1.3514767
C          -0.9337121    -1.8003100     0.0849534
H          -1.4836420    -2.7313744    -0.0168994
C           0.2971530    -1.6469368    -0.5583735
H           0.6949794    -2.4601641    -1.1615837
C           1.0153082    -0.4511240    -0.4456707
C           2.3295771    -0.2654451    -1.1762347
H           2.2381614     0.5790924    -1.8625401
H           2.5494601    -1.1588013    -1.7869689
N           5.8894031    -0.1454984     1.2373682
H           6.3590075    -0.9636416     0.8292817
H           6.5143904     0.2140205     1.9675621
C           5.6944019     0.8984233     0.1516785
H           6.6803370     1.1097708    -0.2686045
H           5.3030584     1.7893442     0.6483244
C           4.7119181     0.3974547    -0.9153559
H           5.1689647    -0.4873570    -1.4085197
C           4.5669263     1.5083488    -1.9637318
H           5.5543514     1.8584177    -2.2825361
H           4.0114525     2.3585175    -1.5544099
H           4.0515286     1.1517764    -2.8572563
N           3.4510850     0.0363482    -0.2533287
C           3.6579761    -1.0435606     0.7053842
H           4.0762626    -1.9582100     0.2352058
H           2.6955016    -1.3231527     1.1413840
C           4.5671563    -0.5925904     1.8361201
H           4.7830901    -1.3913963     2.5495869
H           4.1538700     0.2736951     2.3565262
33
018_C12H19N2+_0-10-11-26 (75,) energy =    -577.9873978
C           0.3387851     0.6946775     0.1409435
H           0.7797511     1.6868584     0.0785478
C          -0.8812387     0.5158411     0.7904790
H          -1.3907874     1.3692046     1.2287299
C          -1.4557378    -0.7563984     0.8645347
H          -2.4104285    -0.8941475     1.3637180
C          -0.8061916    -1.8460709     0.2845941
H          -1.2535538    -2.8348837     0.3273975
C           0.4173114    -1.6643147    -0.3648216
H           0.9096773    -2.5140492    -0.8336180
C           1.0054535    -0.3953680    -0.4368828
C           2.3142907    -0.1828745    -1.1679930
H           2.2270610     0.6988917    -1.8042498
H           2.5185819    -1.0450710    -1.8273880
N           5.9099764    -0.2385364     1.2026907
H           6.3575072    -1.0469679     0.7525878
H           6.5520708     0.0769318     1.9383583
C           5.7197083     0.8548775     0.1664093
H           6.7034598     1.0659735    -0.2591259
H           5.3524451     1.7304409     0.7068003
C           4.7128565     0.4187299    -0.9062699
H           5.1469694    -0.4513692    -1.4447191
C           4.5758090     1.5776894    -1.9026688
H           5.5655787     1.9250140    -2.2172115
H           4.0399920     2.4179565    -1.4491197
H           4.0447320     1.2703277    -2.8052150
N           3.4542407     0.0512273    -0.2429428
C           3.6540973    -1.0711027     0.6652979
H           4.0479005    -1.9737047     0.1518014
H           2.6937690    -1.3517330     1.1051817
C           4.5875988    -0.6857400     1.8005944
H           4.7977690    -1.5186754     2.4757346
H           4.1983953     0.1649088     2.3636127
33
018_C12H19N2+_0-10-11-26 (90,) energy =    -577.9859735
C           0.1826322     0.7386215    -0.0174564
H           0.5249613     1.7535775    -0.2060728
C          -1.0476169     0.5274576     0.6040174
H          -1.6599045     1.3767837     0.8929677
C          -1.4989035    -0.7734790     0.8385622
H          -2.4608800    -0.9383975     1.3149481
C          -0.7194372    -1.8605397     0.4407187
H          -1.0751081    -2.8745637     0.5989198
C           0.5110344    -1.6452754    -0.1829193
H           1.0951445    -2.4975630    -0.5253385
C           0.9864299    -0.3440136    -0.4000415
C           2.2933014    -0.0964399    -1.1245679
H           2.2057994     0.8259991    -1.6986004
H           2.4799815    -0.9149040    -1.8430165
N           5.9468554    -0.3295866     1.1562417
H           6.3668236    -1.1277068     0.6632196
H           6.6133171    -0.0555742     1.8868259