33
018_C12H19N2+_10-11-26-27 (-165,) energy =    -577.9766936
C           0.4603449    -0.0729009    -1.5250081
H           1.0282596    -0.1898478    -2.4456336
C          -0.7177149     0.6767751    -1.5296384
H          -1.0592974     1.1416022    -2.4499613
C          -1.4610008     0.8158184    -0.3561911
H          -2.3804162     1.3939003    -0.3595289
C          -1.0295780     0.1932325     0.8183163
H          -1.6155238     0.2826647     1.7285150
C           0.1465163    -0.5549237     0.8197204
H           0.4748731    -1.0460635     1.7329106
C           0.9133836    -0.6807696    -0.3473608
C           2.1692243    -1.5174347    -0.3535149
H           2.3704181    -1.7979753    -1.4015233
H           1.9911877    -2.4499148     0.1940071
N           6.2246893    -0.1698964     0.2831804
H           6.4376854    -0.0290835    -0.7123519
H           7.0836136     0.0501856     0.7999098
C           5.1082342     0.7728831     0.6898926
H           5.4454931     1.7844739     0.4556081
H           4.9992780     0.6624239     1.7715296
C           3.7789710     0.4543618    -0.0161506
H           3.9143285     0.6422930    -1.1016373
C           2.7927887     1.4934898     0.5469859
H           3.2670668     2.4820076     0.5557388
H           2.5082839     1.2339956     1.5705176
H           1.8902676     1.5699891    -0.0530143
N           3.4336121    -0.9605960     0.2436102
C           4.5069086    -1.8314794    -0.2400173
H           4.6783619    -1.7239879    -1.3315253
H           4.2170165    -2.8744723    -0.0765912
C           5.8152509    -1.6095651     0.4978721
H           6.6193569    -2.2479960     0.1241532
H           5.6993555    -1.7457264     1.5750802
33
018_C12H19N2+_10-11-26-27 (-150,) energy =    -577.9742481
C           0.6764435    -0.0881229    -1.5051054
H           1.3555281    -0.2286772    -2.3437645
C          -0.4698429     0.6901027    -1.6693728
H          -0.6736894     1.1580824    -2.6281564
C          -1.3635222     0.8497504    -0.6075615
H          -2.2605133     1.4483259    -0.7364774
C          -1.1114654     0.2202981     0.6134509
H          -1.8137391     0.3250999     1.4353228
C           0.0386198    -0.5521426     0.7762794
H           0.2294417    -1.0436738     1.7274228
C           0.9534580    -0.7007185    -0.2746660
C           2.1835458    -1.5591035    -0.1058624
H           2.3474439    -2.0654271    -1.0694567
H           1.9883718    -2.3434830     0.6334749
N           6.2166835     0.0095881     0.0514955
H           6.2893300     0.1708729    -0.9610916
H           7.1227040     0.2727314     0.4552515
C           5.1141043     0.8832943     0.6179396
H           5.3661478     1.9161201     0.3692696
H           5.1507360     0.7461739     1.7014261
C           3.7228651     0.5101594     0.0770054
H           3.6972753     0.7649831    -1.0021822
C           2.7650219     1.4485723     0.8355754
H           3.1902832     2.4583063     0.8784142
H           2.6199446     1.0891735     1.8587415
H           1.7951135     1.5244788     0.3527823
N           3.4923533    -0.9280976     0.3086634
C           4.5466372    -1.7446225    -0.2887772
H           4.5929389    -1.6406357    -1.3936243
H           4.3314986    -2.7992224    -0.0889022
C           5.9172936    -1.4521861     0.2955173
H           6.7062904    -2.0418641    -0.1773442
H           5.9366088    -1.5996698     1.3773531
33
018_C12H19N2+_10-11-26-27 (-135,) energy =    -577.9738924
C           0.8153347    -0.1188931    -1.4437807
H           1.5857152    -0.2941563    -2.1925325
C          -0.2952779     0.6596816    -1.7691402
H          -0.3763128     1.0993462    -2.7591236
C          -1.3113536     0.8544037    -0.8303578
H          -2.1808381     1.4527437    -1.0859622
C          -1.2136533     0.2628088     0.4303754
H          -2.0077451     0.3964891     1.1591708
C          -0.0962640    -0.5073539     0.7565683
H          -0.0243818    -0.9656233     1.7401647
C           0.9364537    -0.6963941    -0.1708506
C           2.1199346    -1.5753931     0.1708641
H           2.2127846    -2.3166250    -0.6327626
H           1.8965931    -2.1344880     1.0864802
N           6.1408620     0.0241875    -0.1540954
H           6.0685854     0.2174510    -1.1613823
H           7.0914720     0.2886706     0.1277173
C           5.1186348     0.8586733     0.5919213
H           5.3291611     1.9059964     0.3655661
H           5.2979457     0.6685864     1.6529715
C           3.6740644     0.4945769     0.2121784
H           3.4992732     0.8391467    -0.8266969
C           2.8082065     1.3367048     1.1665331
H           3.1700720     2.3712173     1.1871093
H           2.8629910     0.9274757     2.1805900
H           1.7668936     1.3602110     0.8572544
N           3.4816495    -0.9539949     0.3576667
C           4.4720486    -1.7576152    -0.3479691
H           4.4070578    -1.6574115    -1.4529823
H           4.2969280    -2.8142646    -0.1243626
C           5.8949523    -1.4484512     0.0848630
H           6.6340118    -2.0129486    -0.4886206
H           6.0405917    -1.6181195     1.1538601
33
018_C12H19N2+_10-11-26-27 (-120,) energy =    -577.9765320
C           0.9148638    -0.1889982    -1.4229814
H           1.7437347    -0.3993038    -2.0965658
C          -0.1769112     0.5417281    -1.8913610
H          -0.1848083     0.9099862    -2.9133615
C          -1.2672147     0.7838795    -1.0523484
H          -2.1211424     1.3467535    -1.4173820
C          -1.2590956     0.2895457     0.2525472
H          -2.1080147     0.4644765     0.9070333
C          -0.1599971    -0.4329321     0.7213735
H          -0.1605352    -0.8142476     1.7400900
C           0.9431281    -0.6743278    -0.1067162
C           2.1036001    -1.5154046     0.3946422
H           2.1383175    -2.4429624    -0.1864379
H           1.8938743    -1.8105378     1.4302327
N           6.0887248     0.0605535    -0.2762904
H           5.9303907     0.3265169    -1.2570831
H           7.0635464     0.2986774    -0.0621324
C           5.1468665     0.8461436     0.6160031
H           5.3527708     1.9060794     0.4511357
H           5.4136682     0.5739101     1.6400548
C           3.6732632     0.5178048     0.3292131
H           3.4121508     0.9603907    -0.6527561
C           2.8826302     1.2542559     1.4234057
H           3.1861508     2.3063424     1.4626453
H           3.0730401     0.7980269     2.4006223
H           1.8124504     1.2284155     1.2285843
N           3.4777338    -0.9305674     0.3480902
C           4.3954649    -1.7018374    -0.4716711
H           4.2641744    -1.5357606    -1.5634848
H           4.2242922    -2.7680919    -0.3003926
C           5.8501337    -1.4263999    -0.1239356
H           6.5411384    -1.9486351    -0.7899518
H           6.0738184    -1.6701810     0.9168781
33
018_C12H19N2+_10-11-26-27 (-105,) energy =    -577.9804916
C           0.9702138    -0.2886747    -1.4353116
H           1.8269041    -0.5488796    -2.0538383
C          -0.1021529     0.3932653    -2.0107407
H          -0.0659885     0.6718219    -3.0601805
C          -1.2269915     0.7032301    -1.2431052
H          -2.0649566     1.2289350    -1.6911218
C          -1.2720255     0.3270126     0.0997613
H          -2.1461322     0.5572169     0.7019215
C          -0.1926627    -0.3466848     0.6746352
H          -0.2366400    -0.6369114     1.7223107
C           0.9432868    -0.6598188    -0.0826292
C           2.0857470    -1.4395591     0.5511532
H           2.1091216    -2.4584183     0.1510591
H           1.8781689    -1.5418676     1.6232135
N           6.0338152     0.1088368    -0.3180383
H           5.8297030     0.4619703    -1.2621424
H           7.0241890     0.3088425    -0.1393062
C           5.1609651     0.8384974     0.6870492
H           5.3784538     1.9046256     0.5893271
H           5.4792621     0.4848429     1.6706433
C           3.6709108     0.5469314     0.4567060
H           3.3671646     1.0432231    -0.4865913
C           2.9250249     1.2163855     1.6201773
H           3.2096053     2.2715925     1.6930335
H           3.1678845     0.7224283     2.5669243
H           1.8466000     1.1778253     1.4697469
N           3.4607687    -0.8978322     0.3982693
C           4.2913538    -1.6027988    -0.5605273
H           4.0935320    -1.3228321    -1.6178083
H           4.1029228    -2.6770648    -0.4849563
C           5.7723857    -1.3832093    -0.2847849
H           6.4110282    -1.8515035    -1.0376020
H           6.0536661    -1.7242938     0.7137860
33
018_C12H19N2+_10-11-26-27 (-90,) energy =    -577.9832254
C           0.9237771    -0.5639882    -1.4876786
H           1.7201862    -1.0026130    -2.0839705
C          -0.1253306     0.0866533    -2.1374079
H          -0.1210252     0.1690578    -3.2206493
C          -1.1881061     0.6136091    -1.4002264
H          -2.0082602     1.1142234    -1.9062433
C          -1.1970523     0.4802913    -0.0118079
H          -2.0261796     0.8737829     0.5690156
C          -0.1408382    -0.1639987     0.6352589
H          -0.1635205    -0.2737776     1.7176812
C           0.9379272    -0.6883975    -0.0893717
C           2.0600801    -1.4136557     0.6418760
H           2.0963152    -2.4656636     0.3385313
H           1.8334621    -1.4176101     1.7130964
N           5.9595388     0.1925010    -0.3184921
H           5.7106998     0.6495132    -1.2053886
H           6.9609041     0.3629747    -0.1734779
C           5.1518033     0.8193592     0.8047011
H           5.3700647     1.8898110     0.7981886
H           5.5231420     0.3707117     1.7291248
C           3.6511054     0.5463147     0.6313856
H           3.3008999     1.1013994    -0.2620199
C           2.9562269     1.1292260     1.8687411
H           3.2527950     2.1737436     2.0116894
H           3.2263455     0.5636449     2.7666895
H           1.8727654     1.1121194     1.7518607
N           3.4420755    -0.8946697     0.4793759
C           4.1797219    -1.4696561    -0.6327194
H           3.9061487    -1.0428529    -1.6197747
H           3.9781620    -2.5431713    -0.6880120
C           5.6801102    -1.2927082    -0.4395304
H           6.2598974    -1.6719487    -1.2845487
H           6.0241027    -1.7503548     0.4902614
33
018_C12H19N2+_10-11-26-27 (-75,) energy =    -577.9848097
C           0.8554120    -0.9543790    -1.4952531
H           1.5231815    -1.6532208    -1.9935210
C          -0.1450102    -0.3285202    -2.2390167
H          -0.2260442    -0.5216446    -3.3049807
C          -1.0550454     0.5244843    -1.6109814
H          -1.8393225     1.0061076    -2.1874765
C          -0.9668533     0.7335740    -0.2347074
H          -1.6870222     1.3730822     0.2674296
C           0.0392827     0.1085971     0.5046190
H           0.0711511     0.2524746     1.5821580
C           0.9761735    -0.7309415    -0.1135055
C           2.0696513    -1.4096873     0.7010263
H           2.1185721    -2.4768311     0.4582090
H           1.8248841    -1.3502940     1.7648372
N           5.8707987     0.3304909    -0.3937315
H           5.5267359     0.8919432    -1.1834284
H           6.8815708     0.4972050    -0.3350975
C           5.1855563     0.7959782     0.8784419
H           5.3990129     1.8618673     0.9864425
H           5.6528192     0.2396837     1.6945735
C           3.6759810     0.5236573     0.8280062
H           3.2354046     1.1700078     0.0425757
C           3.1121304     0.9551213     2.1878279
H           3.4418342     1.9710393     2.4298863
H           3.4515221     0.2789416     2.9792992
H           2.0229974     0.9660016     2.1773306
N           3.4572905    -0.8975659     0.5365662
C           4.0704921    -1.3076004    -0.7186609
H           3.6765916    -0.7637388    -1.6003307
H           3.8692725    -2.3697640    -0.8881819
C           5.5817499    -1.1309973    -0.6717659
H           6.0634528    -1.3911405    -1.6173797
H           6.0295052    -1.6975363     0.1473096
33
018_C12H19N2+_10-11-26-27 (-60,) energy =    -577.9857298
C           0.6448640    -1.3590916    -1.3767698
H           1.1085030    -2.3024554    -1.6589899
C          -0.3037628    -0.7831025    -2.2230511
H          -0.5604145    -1.2709458    -3.1590546
C          -0.9329507     0.4079167    -1.8577664
H          -1.6775448     0.8544352    -2.5101880
C          -0.6157739     1.0116381    -0.6396035
H          -1.1179633     1.9265673    -0.3383578
C           0.3327267     0.4313378     0.2037463
H           0.5409227     0.8989156     1.1629233
C           0.9846350    -0.7582030    -0.1555226
C           2.0372800    -1.3939383     0.7408102
H           2.0875919    -2.4700831     0.5419808
H           1.7669675    -1.2894047     1.7934650
N           5.7454007     0.4973527    -0.3809348
H           5.3254527     1.1682075    -1.0372712
H           6.7573235     0.6667153    -0.3972763
C           5.1907256     0.7526294     1.0082610
H           5.4195345     1.7906399     1.2600605
H           5.7317092     0.0807224     1.6789804
C           3.6819375     0.4772581     1.0611023
H           3.1735834     1.2306983     0.4264360
C           3.2556546     0.6927361     2.5203732
H           3.6181739     1.6602905     2.8833566
H           3.6635289    -0.0971538     3.1594500
H           2.1707830     0.6975264     2.6305642
N           3.4298352    -0.8889716     0.5828166
C           3.9196777    -1.0974066    -0.7750973
H           3.4310502    -0.4429368    -1.5225209
H           3.7035957    -2.1268910    -1.0774491
C           5.4269754    -0.9083732    -0.8497007
H           5.8124739    -1.0149773    -1.8664709
H           5.9541857    -1.5863766    -0.1752766
33
018_C12H19N2+_10-11-26-27 (-45,) energy =    -577.9846027
C           0.8740400    -0.1466650    -1.3303531
H           1.5709991     0.2016986    -2.0899207
C          -0.1623300    -1.0042510    -1.6999698
H          -0.2538658    -1.3288804    -2.7326225
C          -1.0918942    -1.4288981    -0.7477662
H          -1.9042639    -2.0893159    -1.0364883
C          -0.9828965    -0.9868779     0.5712733
H          -1.7122574    -1.2988379     1.3132671
C           0.0578780    -0.1314949     0.9376720
H           0.1234823     0.2240221     1.9641943
C           1.0030420     0.2960626    -0.0042156
C           2.1387037     1.2156932     0.4118383
H           1.8841279     1.6792151     1.3721646
H           2.2649133     2.0347448    -0.2966278
N           5.6660284    -1.2603882     0.7324808
H           5.3361061    -2.0578736     0.1740322
H           6.6115016    -1.4994021     1.0516183
C           5.7046132    -0.0268104    -0.1520346
H           6.3460046    -0.2651861    -1.0036699
H           6.1590632     0.7663662     0.4463273
C           4.2891970     0.3700194    -0.5937332
H           3.8885906    -0.4548755    -1.2181186
C           4.4274750     1.6206988    -1.4716772
H           5.1987898     1.4650414    -2.2333605
H           4.7043336     2.4904563    -0.8671632
H           3.5006657     1.8478160    -2.0017140
N           3.4724738     0.5768635     0.6138463
C           3.3688538    -0.6610060     1.3802869
H           2.9244154    -1.4942319     0.8046985
H           2.7150984    -0.4990667     2.2426656
C           4.7322016    -1.0752930     1.9137748
H           4.7014544    -2.0212386     2.4599801
H           5.1733638    -0.2955882     2.5380001
33
018_C12H19N2+_10-11-26-27 (-30,) energy =    -577.9818204
C           0.8182003    -0.3776989    -1.2795504
H           1.5421369    -0.1854206    -2.0694935
C          -0.2572626    -1.2297170    -1.5297488
H          -0.3570834    -1.7045766    -2.5016963
C          -1.2147928    -1.4570388    -0.5377768
H          -2.0574910    -2.1132450    -0.7345492
C          -1.0927226    -0.8259465     0.7005020
H          -1.8414919    -0.9866351     1.4707465
C          -0.0117589     0.0226380     0.9489767
H           0.0686856     0.5234552     1.9117071
C           0.9585154     0.2548284    -0.0341181
C           2.1310321     1.1759334     0.2490510
H           1.8994446     1.7681138     1.1422055
H           2.2626702     1.8894382    -0.5634571
N           5.7002226    -1.2454411     0.6983940
H           5.4736359    -1.9927489     0.0299411
H           6.6142237    -1.4817223     1.1004542
C           5.7790355     0.0723676    -0.0510363
H           6.5201510    -0.0560432    -0.8433953
H           6.1279082     0.8159658     0.6693105
C           4.4035778     0.4654888    -0.6100854
H           4.1140645    -0.3068967    -1.3535742
C           4.5895789     1.7997249    -1.3458598
H           5.4557388     1.7439970    -2.0138095
H           4.7494794     2.6164072    -0.6346611
H           3.7282587     2.0452481    -1.9695825
N           3.4528727     0.5198585     0.5130832
C           3.3192168    -0.7962518     1.1297015
H           2.9845020    -1.5776621     0.4218846
H           2.5637101    -0.7560037     1.9190499
C           4.6309433    -1.2175815     1.7747505
H           4.5827628    -2.2166519     2.2149585
H           4.9619575    -0.4931640     2.5215881
33
018_C12H19N2+_10-11-26-27 (-15,) energy =    -577.9797174
C           0.7193818    -0.5775835    -1.2534379
H           1.4265625    -0.5170329    -2.0788482
C          -0.3925584    -1.4121981    -1.3609925
H          -0.5408882    -2.0038255    -2.2599034
C          -1.3242696    -1.4731453    -0.3212201
H          -2.1951398    -2.1162356    -0.4077311
C          -1.1400252    -0.6940833     0.8214951
H          -1.8681677    -0.7262105     1.6267824
C          -0.0230345     0.1376655     0.9278577
H           0.1083057     0.7531185     1.8153734
C           0.9212816     0.2030701    -0.1047631
C           2.1286179     1.1114912     0.0160433
H           1.9308948     1.8669721     0.7848027
H           2.2588190     1.6483278    -0.9241968
N           5.7345198    -1.2222193     0.6897378
H           5.6162211    -1.9169065    -0.0587703
H           6.6085953    -1.4591162     1.1721359
C           5.8348411     0.1579626     0.0680990
H           6.6667453     0.1303248    -0.6395647
H           6.0645290     0.8454681     0.8855624
C           4.5171748     0.5544986    -0.6152728
H           4.3654695    -0.1356576    -1.4731835
C           4.7280258     1.9738558    -1.1643244
H           5.6669941     2.0251015    -1.7258511
H           4.7687223     2.7011659    -0.3472078
H           3.9346047     2.2704394    -1.8518621
N           3.4309111     0.4459516     0.3662962
C           3.3016164    -0.9129549     0.8744137
H           3.0951366    -1.6617900     0.0844155
H           2.4606060    -0.9675979     1.5693419
C           4.5524817    -1.3231692     1.6358134
H           4.5062636    -2.3545791     1.9940405
H           4.7609285    -0.6449224     2.4657320
33
018_C12H19N2+_10-11-26-27 (0,) energy =    -577.9799825
C           0.6052864    -0.6972933    -1.2668435
H           1.2543368    -0.7289671    -2.1398348
C          -0.5402920    -1.4922091    -1.2306666
H          -0.7734310    -2.1438521    -2.0678817
C          -1.3952952    -1.4367056    -0.1273491
H          -2.2918001    -2.0492015    -0.1030150
C          -1.1028007    -0.5804929     0.9356153
H          -1.7722827    -0.5217914     1.7888823
C           0.0453369     0.2130465     0.8974395
H           0.2614456     0.8906330     1.7206630
C           0.9148638     0.1600885    -0.2009412
C           2.1557213     1.0259242    -0.2407035
H           1.9972722     1.9311680     0.3547693
H           2.2972428     1.3446621    -1.2785522
N           5.7600006    -1.2019489     0.7216536
H           5.7378609    -1.8521171    -0.0745762
H           6.5928177    -1.4414114     1.2711031
C           5.8655047     0.2173395     0.1980508
H           6.7636461     0.2665067    -0.4221278
H           5.9858437     0.8563724     1.0759825
C           4.6086235     0.6136389    -0.5909833
H           4.5865895     0.0018118    -1.5194067
C           4.7975191     2.0871810    -0.9836943
H           5.7623083     2.2240979    -1.4835210
H           4.7676849     2.7282780    -0.0966577
H           4.0274899     2.4258258    -1.6779577
N           3.4248688     0.3753258     0.2355737
C           3.3094265    -1.0052563     0.6767527
H           3.2216105    -1.7333379    -0.1562888
H           2.4077608    -1.1248241     1.2800608
C           4.4976603    -1.3958693     1.5411291
H           4.4636099    -2.4435978     1.8497346
H           4.5932277    -0.7478477     2.4147779
33
018_C12H19N2+_10-11-26-27 (15,) energy =    -577.9820349
C           0.4917848    -0.7883642    -1.3032491
H           1.0740854    -0.8748818    -2.2182356
C          -0.6746050    -1.5396447    -1.1534533
H          -0.9906744    -2.2107168    -1.9468817
C          -1.4407298    -1.4172466     0.0074118
H          -2.3525379    -1.9961735     0.1212190
C          -1.0400441    -0.5370701     1.0150379
H          -1.6410653    -0.4267317     1.9130279
C           0.1256013     0.2147133     0.8621347
H           0.4257786     0.9115546     1.6417386
C           0.9076553     0.0930965    -0.2960783
C           2.1680459     0.9122545    -0.4600801
H           2.0326320     1.9049621    -0.0198430
H           2.3281283     1.0542603    -1.5384762
N           5.7810033    -1.1448130     0.7684187
H           5.8758668    -1.7479469    -0.0588292
H           6.5716543    -1.3666205     1.3836453
C           5.8452840     0.3064347     0.3321269
H           6.7919302     0.4435918    -0.1958638
H           5.8434132     0.8996370     1.2495526
C           4.6435679     0.6700993    -0.5507924
H           4.7432408     0.1111174    -1.5073824
C           4.7597538     2.1710567    -0.8547259
H           5.7430706     2.3958386    -1.2809239
H           4.6301535     2.7610068     0.0585897
H           4.0121108     2.4927943    -1.5810940
N           3.4055945     0.3147064     0.1406551
C           3.3346512    -1.0921590     0.4984167
H           3.3706358    -1.7770310    -0.3755084
H           2.3914767    -1.2946427     1.0081692
C           4.4618159    -1.4602938     1.4500088
H           4.4670974    -2.5240937     1.6995460
H           4.4333456    -0.8590678     2.3610846
33
018_C12H19N2+_10-11-26-27 (30,) energy =    -577.9846272
C           0.3985877    -0.8375457    -1.3202706
H           0.9079239    -0.9783361    -2.2711298
C          -0.7924271    -1.5204346    -1.0657917
H          -1.2005789    -2.1915260    -1.8159429
C          -1.4607807    -1.3324947     0.1447604
H          -2.3902149    -1.8589283     0.3410829
C          -0.9383416    -0.4550194     1.0986175
H          -1.4626816    -0.2949019     2.0363393
C           0.2488502     0.2297711     0.8406211
H           0.6450754     0.9240144     1.5784425
C           0.9328583     0.0420160    -0.3703466
C           2.2144396     0.7945350    -0.6477744
H           2.1022924     1.8426543    -0.3567243
H           2.3931624     0.7748899    -1.7355518
N           5.8142656    -1.0927257     0.8281608
H           6.0248580    -1.6472941    -0.0114541
H           6.5571175    -1.2964937     1.5060589
C           5.8260669     0.3796241     0.4614058
H           6.8048230     0.5956165     0.0265676
H           5.7070255     0.9288434     1.3982595
C           4.6849394     0.7089434    -0.5097474
H           4.8900267     0.1816412    -1.4673793
C           4.7382981     2.2198444    -0.7746706
H           5.7420891     2.5116961    -1.1005823
H           4.4873351     2.7815639     0.1311466
H           4.0448368     2.5103862    -1.5655107
N           3.4154105     0.2651312     0.0675479
C           3.3995193    -1.1642433     0.3394395
H           3.5523247    -1.7877704    -0.5674311
H           2.4299999    -1.4476931     0.7518857
C           4.4611029    -1.5223663     1.3668824
H           4.5109546    -2.5964674     1.5609120
H           4.3139259    -0.9771828     2.3014426
33
018_C12H19N2+_10-11-26-27 (45,) energy =    -577.9868902
C           0.2827317    -0.8845851    -1.3298453
H           0.7167770    -1.0822775    -2.3074774
C          -0.9321423    -1.4782210    -0.9791081
H          -1.4340460    -2.1364203    -1.6823345
C          -1.5003332    -1.2210789     0.2686303
H          -2.4466313    -1.6790973     0.5411804
C          -0.8533127    -0.3645763     1.1641653
H          -1.2980904    -0.1528496     2.1323573
C           0.3559087     0.2317637     0.8101951
H           0.8515181     0.9074917     1.5035158
C           0.9379861    -0.0245984    -0.4408459
C           2.2400518     0.6424994    -0.8267632
H           2.1507784     1.7228848    -0.6887323
H           2.4299926     0.4646393    -1.8998006
N           5.8115056    -1.0476972     0.9027628
H           6.1479400    -1.5409079     0.0660060
H           6.4952879    -1.2338334     1.6448946
C           5.7508882     0.4394192     0.6036098
H           6.7493162     0.7424418     0.2797727
H           5.4999755     0.9323063     1.5457151
C           4.6882390     0.7342287    -0.4629114
H           5.0112622     0.2452316    -1.4079109
C           4.6746738     2.2512513    -0.6920236
H           5.6898771     2.6130575    -0.8856141
H           4.2797882     2.7739520     0.1853899
H           4.0674852     2.5179111    -1.5588225
N           3.4019276     0.1945692    -0.0121705
C           3.4637951    -1.2488562     0.1749573
H           3.7413915    -1.7956542    -0.7512722
H           2.4813006    -1.6180431     0.4753159
C           4.4481361    -1.6022072     1.2778659
H           4.5589504    -2.6807818     1.4128192
H           4.1726696    -1.1315352     2.2237892
33
018_C12H19N2+_10-11-26-27 (60,) energy =    -577.9880031
C           0.2226575    -0.9443432    -1.3289786
H           0.5972350    -1.2187710    -2.3127567
C          -1.0135900    -1.4324713    -0.8980105
H          -1.5907641    -2.0865535    -1.5450951
C          -1.5037520    -1.0784856     0.3587104
H          -2.4654263    -1.4552101     0.6946207
C          -0.7560792    -0.2324997     1.1833200
H          -1.1379540     0.0518684     2.1598014
C           0.4742618     0.2580566     0.7498185
H           1.0513707     0.9214406     1.3893220
C           0.9757353    -0.0931888    -0.5124908
C           2.2975661     0.4704241    -0.9928217
H           2.2317201     1.5601786    -1.0214516
H           2.4969659     0.1291973    -2.0240188
N           5.8468911    -0.9913301     0.9510511
H           6.2933602    -1.4077010     0.1241855
H           6.4790769    -1.1641831     1.7406715
C           5.6883048     0.5016634     0.7221460
H           6.6820183     0.8982580     0.5016578
H           5.3215605     0.9195042     1.6626152
C           4.6962627     0.7764598    -0.4158408
H           5.1289916     0.3607965    -1.3511753
C           4.5890095     2.2990640    -0.5729188
H           5.5877930     2.7447913    -0.6272497
H           4.0563234     2.7402927     0.2758689
H           4.0681333     2.5718688    -1.4924027
N           3.4221910     0.1213554    -0.0907152
C           3.5913920    -1.3236664     0.0171856
H           3.9831424    -1.7789842    -0.9165197
H           2.6188129    -1.7834556     0.2100386
C           4.5087637    -1.6735080     1.1766266
H           4.6966998    -2.7467121     1.2582039
H           4.1199345    -1.2879613     2.1212327
33
018_C12H19N2+_10-11-26-27 (75,) energy =    -577.9870204
C           0.1554569    -1.0048798    -1.2865809
H           0.4847751    -1.3867382    -2.2506860
C          -1.1018125    -1.3632937    -0.7933553
H          -1.7398367    -2.0255754    -1.3712891
C          -1.5332910    -0.8713374     0.4379387
H          -2.5105086    -1.1474216     0.8231843
C          -0.7049550    -0.0191440     1.1744357
H          -1.0393489     0.3699630     2.1320822
C           0.5471036     0.3401338     0.6793259
H           1.1896281     1.0024383     1.2537480
C           0.9882957    -0.1474905    -0.5590623
C           2.3334885     0.2750134    -1.1178095
H           2.3106925     1.3484036    -1.3157649
H           2.5225061    -0.2226230    -2.0839432
N           5.8851539    -0.9397543     0.9751049
H           6.4196482    -1.2633973     0.1590467
H           6.4809172    -1.1011849     1.7949161
C           5.6013055     0.5441065     0.8169930
H           6.5656194     1.0406144     0.6873676
H           5.1380993     0.8695876     1.7514311
C           4.6614961     0.7993668    -0.3693171
H           5.1884126     0.4803580    -1.2936956
C           4.4279183     2.3144523    -0.4450450
H           5.3818887     2.8485197    -0.3812707
H           3.7860242     2.6483699     0.3765757
H           3.9656030     2.6057039    -1.3897465
N           3.4335367     0.0168845    -0.1582203
C           3.7326992    -1.4109321    -0.1207209
H           4.2165825    -1.7680511    -1.0532000
H           2.7941981    -1.9639158    -0.0166266
C           4.6069062    -1.7534646     1.0738467
H           4.8898827    -2.8083474     1.1037060
H           4.1276348    -1.4670172     2.0120692
33
018_C12H19N2+_10-11-26-27 (90,) energy =    -577.9843319
C           0.0538456    -0.9707127    -1.3053290
H           0.3232109    -1.4091419    -2.2640750
C          -1.2327522    -1.1605161    -0.7965079
H          -1.9535776    -1.7485713    -1.3571723
C          -1.5866153    -0.6005680     0.4309018
H          -2.5858405    -0.7480019     0.8301164
C          -0.6493404     0.1495768     1.1461834
H          -0.9199679     0.5878555     2.1027932
C           0.6332984     0.3410770     0.6346919
H           1.3616104     0.9178680     1.1980899
C           0.9959457    -0.2136119    -0.5995430
C           2.3699976     0.0310892    -1.1967179
H           2.4113988     1.0538610    -1.5782155
H           2.5322719    -0.6226902    -2.0674998
N           5.9558726    -0.8799431     0.9957876
H           6.5503083    -1.1065401     0.1884584
H           6.5368742    -1.0143773     1.8309427