20
288_C7H9ClN2O_1-0-12-10 (-165,) energy =    -917.0746859
C           2.1568108     0.3974518    -1.1114403
N           1.5206869    -0.8209592    -0.8487564
C           0.5998504    -1.2807674    -1.8844921
H           1.0254845    -1.0744926    -2.8663382
H          -0.3753634    -0.7765211    -1.8211904
H           0.4473855    -2.3587375    -1.7658513
C           1.1031098    -1.1869753     0.5056987
H           1.1929990    -2.2703395     0.6538266
H           1.7116387    -0.6758687     1.2516743
H           0.0523900    -0.9088525     0.6780149
C           3.9196507     1.9796641    -0.0200398
Cl          3.4112194     3.5246897    -0.6156293
C           3.2742804     0.7629866    -0.2159409
N           4.0267409    -0.1753044     0.4751091
H           3.8861993    -1.1701056     0.3795634
C           5.1015030     0.4186507     1.0737285
H           5.8170435    -0.1581825     1.6418702
C           5.0523226     1.7716617     0.8034012
H           5.7391177     2.5296398     1.1506135
O           1.8887415     1.0656468    -2.1022474
20
288_C7H9ClN2O_1-0-12-10 (-150,) energy =    -917.0753193
C           2.2106507     0.3356204    -1.2111876
N           1.4836931    -0.8025543    -0.8693674
C           0.5307087    -1.2771976    -1.8672240
H           0.9401788    -1.1138486    -2.8636661
H          -0.4295373    -0.7456601    -1.7989966
H           0.3520425    -2.3460624    -1.7080538
C           1.1053033    -1.1090020     0.5085952
H           1.1581555    -2.1901104     0.6885076
H           1.7628215    -0.6010721     1.2133865
H           0.0735017    -0.7835878     0.7081947
C           3.8443829     1.9614145     0.0178345
Cl          3.2337510     3.4991477    -0.4993374
C           3.3089140     0.7187089    -0.2929879
N           4.0950745    -0.2085068     0.3711443
H           4.0098057    -1.2049038     0.2351006
C           5.0984796     0.4188060     1.0569565
H           5.8329492    -0.1434371     1.6153037
C           4.9582196     1.7796645     0.8744789
H           5.5739915     2.5589600     1.2991370
O           2.0192576     0.9386511    -2.2602036
20
288_C7H9ClN2O_1-0-12-10 (-135,) energy =    -917.0748306
C           2.3169906     0.2765332    -1.2806834
N           1.4861653    -0.7565772    -0.8756689
C           0.5116132    -1.2392615    -1.8468022
H           0.9104600    -1.1028220    -2.8513289
H          -0.4372074    -0.6885844    -1.7733465
H           0.3141759    -2.3010559    -1.6621815
C           1.1418908    -1.0197409     0.5170789
H           1.1687225    -2.0974840     0.7230277
H           1.8348802    -0.5144600     1.1886458
H           0.1262596    -0.6594011     0.7362364
C           3.8171530     1.9309451     0.0806224
Cl          3.1098062     3.4491409    -0.3724892
C           3.3902539     0.6788814    -0.3324446
N           4.2085860    -0.2331929     0.3101633
H           4.1864362    -1.2260559     0.1307226
C           5.1384625     0.4168378     1.0776059
H           5.8904034    -0.1286531     1.6290964
C           4.9096777     1.7728296     0.9709962
H           5.4532985     2.5643700     1.4657320
O           2.2210769     0.7987158    -2.3852074
20
288_C7H9ClN2O_1-0-12-10 (-120,) energy =    -917.0737933
C           2.3797560     0.1698531    -1.3427108
N           1.4436218    -0.7285469    -0.8732483
C           0.4534586    -1.2349094    -1.8144152
H           0.8398630    -1.1230141    -2.8266650
H          -0.4907827    -0.6779156    -1.7355319
H           0.2523801    -2.2914388    -1.6023897
C           1.1329202    -0.9373797     0.5338594
H           1.1453112    -2.0076920     0.7786952
H           1.8533089    -0.4209914     1.1670681
H           0.1305721    -0.5497198     0.7639896
C           3.7501085     1.8674968     0.1098063
Cl          2.9231946     3.3442307    -0.2814126
C           3.4273827     0.6118135    -0.3719603
N           4.3065552    -0.2670712     0.2315440
H           4.3571807    -1.2508670     0.0128528
C           5.1793661     0.4125414     1.0431766
H           5.9665263    -0.1023464     1.5743845
C           4.8480911     1.7497176     1.0021878
H           5.3277133     2.5549785     1.5391974
O           2.3891627     0.5670575    -2.5023814
20
288_C7H9ClN2O_1-0-12-10 (-105,) energy =    -917.0731082
C           2.4479472     0.0461283    -1.3872195
N           1.3863743    -0.6842817    -0.9102415
C           0.4139114    -1.2069541    -1.8597136
H           0.8092184    -1.0794798    -2.8665523
H          -0.5397930    -0.6684555    -1.7758821
H           0.2295048    -2.2699784    -1.6610316
C           1.0391802    -0.8240017     0.4950391
H           0.9577214    -1.8849583     0.7665506
H           1.7961300    -0.3541532     1.1222051
H           0.0716731    -0.3457166     0.6996940
C           3.6550591     1.7940630     0.1638876
Cl          2.6522515     3.1888565    -0.1109998
C           3.4384638     0.5388031    -0.3694005
N           4.4434653    -0.2670298     0.1246673
H           4.5929565    -1.2232909    -0.1606094
C           5.2815502     0.4585178     0.9363008
H           6.1393561     0.0000034     1.4059897
C           4.8087624     1.7507969     0.9922195
H           5.2268520     2.5727649     1.5547642
O           2.6261016     0.2622406    -2.5811855
20
288_C7H9ClN2O_1-0-12-10 (-90,) energy =    -917.0747278
C           2.5259236    -0.1507196    -1.2805381
N           1.3381264    -0.7042096    -0.8807271
C           0.4237220    -1.2151894    -1.8920171
H           0.9214994    -1.1757700    -2.8599174
H          -0.4930367    -0.6114754    -1.9260914
H           0.1467926    -2.2510613    -1.6593967
C           0.8306748    -0.6765574     0.4815806
H           0.5223993    -1.6855385     0.7843602
H           1.6045891    -0.3235258     1.1628065
H          -0.0398576    -0.0121072     0.5633076
C           3.5509440     1.6302268     0.3810220
Cl          2.3167814     2.8597147     0.3681584
C           3.4370981     0.3834117    -0.2099912
N           4.6400948    -0.2512965     0.0237956
H           4.8989023    -1.1267444    -0.4065798
C           5.4712408     0.5469626     0.7652349
H           6.4486198     0.2048002     1.0727784
C           4.8148789     1.7326998     1.0169097
H           5.1817311     2.5722489     1.5889999
O           2.9150824    -0.1685055    -2.4459906
20
288_C7H9ClN2O_1-0-12-10 (-75,) energy =    -917.0780294
C           2.5750281    -0.2852936    -1.2237383
N           1.3157788    -0.6861647    -0.8672684
C           0.4217749    -1.1957174    -1.8969930
H           0.9557720    -1.2046053    -2.8460988
H          -0.4706140    -0.5614152    -1.9793327
H           0.0991248    -2.2150732    -1.6488342
C           0.7518813    -0.5745895     0.4679639
H           0.3165324    -1.5384422     0.7617139
H           1.5291873    -0.3083097     1.1834384
H          -0.0377202     0.1868135     0.5055927
C           3.5029949     1.5222170     0.4883617
Cl          2.1836133     2.6530895     0.6130937
C           3.4592207     0.2977783    -0.1651888
N           4.7314669    -0.2257034    -0.0499504
H           5.0352198    -1.0259219    -0.5858450
C           5.5349220     0.6051499     0.6792425
H           6.5582148     0.3417069     0.9042581
C           4.7930454     1.7101462     1.0436556
H           5.1218705     2.5500778     1.6378805
O           3.0472196    -0.4799306    -2.3449195
20
288_C7H9ClN2O_1-0-12-10 (-60,) energy =    -917.0808042
C           2.6078147    -0.3705308    -1.1617722
N           1.3008171    -0.6206956    -0.8439301
C           0.4234277    -1.1585520    -1.8734481
H           0.9484285    -1.1363899    -2.8272378
H          -0.4930932    -0.5589093    -1.9357707
H           0.1435389    -2.1953890    -1.6420152
C           0.7236369    -0.5089004     0.4856496
H           0.2670453    -1.4677832     0.7659035
H           1.4954933    -0.2655475     1.2143403
H          -0.0514844     0.2661665     0.5205527
C           3.4923827     1.4723968     0.5590601
Cl          2.1498108     2.5663066     0.7426597
C           3.4880076     0.2715784    -0.1439139
N           4.7828172    -0.2001193    -0.0732118
H           5.0959581    -0.9658688    -0.6534577
C           5.5670740     0.6372345     0.6645089
H           6.6076233     0.4144124     0.8510742
C           4.7875243     1.6959203     1.0871094
H           5.0965519     2.5306355     1.6991158
O           3.1110277    -0.7169356    -2.2346472
20
288_C7H9ClN2O_1-0-12-10 (-45,) energy =    -917.0823849
C           2.5918872    -0.4424620    -1.1660239
N           1.2552404    -0.5641597    -0.8966713
C           0.4048933    -1.1563864    -1.9201290
H           0.8985840    -1.0706486    -2.8870571
H          -0.5566314    -0.6310006    -1.9420616
H           0.2164059    -2.2198286    -1.7148758
C           0.6599631    -0.4560445     0.4270334
H           0.1910424    -1.4131840     0.6946377
H           1.4225870    -0.2269709     1.1695800
H          -0.1072702     0.3259387     0.4566530
C           3.4466445     1.4513802     0.5372750
Cl          2.0919774     2.5224467     0.7586725
C           3.4727419     0.2723372    -0.2050124
N           4.7809342    -0.1619576    -0.1610205
H           5.0942786    -0.9196418    -0.7525928
C           5.5500009     0.6788729     0.5848905
H           6.6015592     0.4891485     0.7443135
C           4.7438201     1.7018729     1.0467062
H           5.0382729     2.5345084     1.6687181
O           3.1097490    -0.9262060    -2.1788143
20
288_C7H9ClN2O_1-0-12-10 (-30,) energy =    -917.0826528
C           2.5914498    -0.5034897    -1.1367248
N           1.2378927    -0.5209874    -0.9175569
C           0.4096092    -1.1548491    -1.9358996
H           0.8851174    -1.0426562    -2.9094566
H          -0.5740416    -0.6733089    -1.9433847
H           0.2738604    -2.2277532    -1.7369884
C           0.6235424    -0.4214467     0.4006293
H           0.1552278    -1.3819072     0.6590418
H           1.3734656    -0.1931355     1.1556743
H          -0.1464425     0.3573216     0.4219807
C           3.4485245     1.4138948     0.5606423
Cl          2.0953326     2.4733532     0.8391697
C           3.4836169     0.2698058    -0.2376436
N           4.7987190    -0.1447480    -0.2281219
H           5.0997189    -0.8990487    -0.8311364
C           5.5671113     0.6789520     0.5339559
H           6.6260312     0.5064437     0.6608747
C           4.7519425     1.6696450     1.0495600
H           5.0454396     2.4880364     1.6906916
O           3.1090540    -1.0952135    -2.0917077
20
288_C7H9ClN2O_1-0-12-10 (-15,) energy =    -917.0816244
C           2.5975491    -0.5607513    -1.0922659
N           1.2339110    -0.5037685    -0.9346987
C           0.4357385    -1.1788533    -1.9522249
H           0.9126788    -1.0636713    -2.9250547
H          -0.5605260    -0.7252468    -1.9715197
H           0.3306356    -2.2533545    -1.7437850
C           0.5836667    -0.3921524     0.3674430
H           0.1047622    -1.3489264     0.6211346
H           1.3123992    -0.1622664     1.1419789
H          -0.1827820     0.3899733     0.3619581
C           3.4574090     1.3793894     0.5999797
Cl          2.1070454     2.4218740     0.9507239
C           3.4940053     0.2745663    -0.2557417
N           4.8168804    -0.1161169    -0.2881002
H           5.1028623    -0.8707020    -0.8988646
C           5.5888522     0.6888908     0.4863939
H           6.6547086     0.5363313     0.5754449
C           4.7683185     1.6424417     1.0616733
H           5.0633891     2.4451173     1.7216775
O           3.1204232    -1.2415806    -1.9838245
20
288_C7H9ClN2O_1-0-12-10 (0,) energy =    -917.0794038
C           2.5945915    -0.5985294    -1.0318353
N           1.2258521    -0.4975054    -0.9353996
C           0.4586107    -1.2149956    -1.9489576
H           0.9557842    -1.1269196    -2.9145807
H          -0.5398446    -0.7696886    -2.0052138
H           0.3570413    -2.2831308    -1.7089709
C           0.5314295    -0.3453762     0.3411484
H           0.0127954    -1.2825779     0.5889473
H           1.2372437    -0.1303724     1.1402571
H          -0.2080585     0.4611777     0.2983876
C           3.4722728     1.3468659     0.6691762
Cl          2.1314732     2.3623968     1.1254259
C           3.4933050     0.2938910    -0.2543643
N           4.8225314    -0.0700270    -0.3481184
H           5.0868821    -0.8212888    -0.9734091
C           5.6092606     0.7071193     0.4364620
H           6.6808470     0.5740310     0.4730744
C           4.7948059     1.6143341     1.0905134
H           5.1005225     2.3932678     1.7737197
O           3.1249902    -1.3427744    -1.8671737
20
288_C7H9ClN2O_1-0-12-10 (15,) energy =    -917.0816243
C           2.5786357    -0.6304049    -1.0703296
N           1.2427625    -0.7444124    -0.7702556
C           0.4692488    -1.6685250    -1.5922029
H           1.0881338    -2.5249826    -1.8575197
H           0.1179495    -1.1946490    -2.5201940
H          -0.4006777    -2.0028922    -1.0174546
C           0.4610014     0.3369408    -0.1784518
H          -0.1279922    -0.0192860     0.6732498
H           1.1118193     1.1412920     0.1582176
H          -0.2269711     0.7460093    -0.9323650
C           3.5664563     0.5980168     1.1398378
Cl          2.4072253     0.4028226     2.4247370
C           3.5012049     0.0958979    -0.1632069
N           4.7175518     0.4082910    -0.7342952
H           4.9286971     0.0924412    -1.6723036
C           5.5215332     1.0619493     0.1433396
H           6.5177042     1.3782285    -0.1301934
C           4.8320445     1.1990197     1.3347174
H           5.1877364     1.6570455     2.2461436
O           3.0741261    -1.1932672    -2.0548852
20
288_C7H9ClN2O_1-0-12-10 (30,) energy =    -917.0826531
C           2.5860607    -0.6839896    -1.0302414
N           1.2377669    -0.7206984    -0.7830367
C           0.4450982    -1.6602839    -1.5664581
H           1.0590484    -2.5217140    -1.8262663
H           0.0771306    -1.2025946    -2.4960764
H          -0.4155609    -1.9817638    -0.9702612
C           0.4847917     0.3836221    -0.2014639
H          -0.1187595     0.0480493     0.6487854
H           1.1578589     1.1697369     0.1355178
H          -0.1878438     0.8075458    -0.9607482
C           3.5645660     0.5474445     1.1648105
Cl          2.4159509     0.2722014     2.4439786
C           3.4835391     0.1153564    -0.1596665
N           4.6816153     0.4777353    -0.7382850
H           4.9081905     0.1720310    -1.6755210
C           5.4867206     1.1108103     0.1564085
H           6.4667478     1.4707269    -0.1214308
C           4.8168752     1.1760888     1.3642884
H           5.1751606     1.6098643     2.2864726
O           3.1018860    -1.3274841    -1.9522056
20
288_C7H9ClN2O_1-0-12-10 (45,) energy =    -917.0823851
C           2.6079731    -0.7425017    -1.0001438
N           1.2498244    -0.6977111    -0.8345179
C           0.4411321    -1.6585516    -1.5721330
H           1.0643195    -2.5054327    -1.8557802
H           0.0221548    -1.2095309    -2.4839442
H          -0.3871277    -1.9975888    -0.9396002
C           0.5194872     0.4156834    -0.2469982
H          -0.0773328     0.0916491     0.6131366
H           1.2085324     1.1936258     0.0777517
H          -0.1582758     0.8436884    -0.9987093
C           3.5866596     0.5077803     1.1672149
Cl          2.4505089     0.1797496     2.4450546
C           3.4783958     0.1314620    -0.1701206
N           4.6592108     0.5287738    -0.7615001
H           4.8928874     0.2324640    -1.6994896
C           5.4737219     1.1448900     0.1395131
H           6.4378553     1.5381824    -0.1485036
C           4.8298951     1.1568329     1.3622444
H           5.1976700     1.5718745     2.2892644
O           3.1490154    -1.4740835    -1.8367999
20
288_C7H9ClN2O_1-0-12-10 (60,) energy =    -917.0808042
C           2.6369490    -0.7551401    -0.9334572
N           1.2761682    -0.6242761    -0.8786985
C           0.4526684    -1.6104445    -1.5630440
H           1.0918663    -2.4224292    -1.9064657
H          -0.0524215    -1.1607584    -2.4288362
H          -0.3126950    -1.9988890    -0.8798196
C           0.5633703     0.4969496    -0.2886231
H          -0.0429448     0.1784001     0.5679212
H           1.2659851     1.2597021     0.0438133
H          -0.1045935     0.9394706    -1.0399378
C           3.6324119     0.5309047     1.1867411
Cl          2.5175124     0.1630936     2.4730389
C           3.4850902     0.1921821    -0.1547945
N           4.6420625     0.6225075    -0.7714499
H           4.8724221     0.3392056    -1.7136755
C           5.4717454     1.2345848     0.1215447
H           6.4151401     1.6605517    -0.1879022
C           4.8659601     1.2045245     1.3621999
H           5.2496546     1.6121551     2.2860046
O           3.1984289    -1.5834410    -1.6566015
20
288_C7H9ClN2O_1-0-12-10 (75,) energy =    -917.0780294
C           2.6298528    -0.8428259    -0.8668195
N           1.2809540    -0.6258169    -0.9496204
C           0.4468729    -1.6228934    -1.6048813
H           1.0881316    -2.4203740    -1.9775014
H          -0.0985436    -1.1699220    -2.4428013
H          -0.2856409    -2.0352942    -0.8986051
C           0.5802808     0.5032218    -0.3600414
H          -0.0431504     0.1883245     0.4865955
H           1.2944014     1.2482366    -0.0107597
H          -0.0697593     0.9637184    -1.1151710
C           3.6617045     0.4524781     1.2109127
Cl          2.5842627     0.0231981     2.5109273
C           3.4650145     0.1597248    -0.1321814
N           4.5841089     0.6421188    -0.7809086
H           4.7928068     0.4083956    -1.7409175
C           5.4322941     1.2513893     0.1005395
H           6.3459494     1.7215988    -0.2330766
C           4.8797814     1.1605968     1.3617617
H           5.2860584     1.5536031     2.2821960
O           3.1971825    -1.7636654    -1.4568087
20
288_C7H9ClN2O_1-0-12-10 (90,) energy =    -917.0747278
C           2.6158703    -0.9420060    -0.7497102
N           1.3009024    -0.6295683    -0.9739971
C           0.4443053    -1.6125431    -1.6220286
H           1.0622641    -2.4475009    -1.9493503
H          -0.0578713    -1.1614602    -2.4870000
H          -0.3241856    -1.9754411    -0.9264677
C           0.6351391     0.5581276    -0.4638095
H          -0.0916675     0.2965556     0.3167878
H           1.3674077     1.2465848    -0.0425580
H           0.0985895     1.0625080    -1.2777304
C           3.7434572     0.3303904     1.2733507
Cl          2.7861075    -0.2402421     2.6123141
C           3.4661156     0.0900882    -0.0616183
N           4.4806616     0.7021629    -0.7692715
H           4.6171785     0.5804412    -1.7618239
C           5.3477837     1.3368986     0.0810008
H           6.1906335     1.8981552    -0.2951944
C           4.9089079     1.1331542     1.3717370
H           5.3549621     1.5122543     2.2794973
O           3.1428748    -1.9678448    -1.1739288
20
288_C7H9ClN2O_1-0-12-10 (105,) energy =    -917.0731082
C           2.5925208    -1.1105001    -0.5845623
N           1.3555482    -0.6541065    -0.9712758
C           0.4321590    -1.5860313    -1.6031272
H           0.9728323    -2.5003452    -1.8438425
H           0.0190362    -1.1428272    -2.5176765
H          -0.4004034    -1.8264882    -0.9281600
C           0.8071920     0.6488175    -0.6298476
H          -0.0663378     0.5363978     0.0266717
H           1.5528879     1.2513522    -0.1122020
H           0.4850046     1.1789914    -1.5359897
C           3.9050588     0.0995697     1.3470972
Cl          3.2391323    -0.7215785     2.7287240
C           3.5186602    -0.1025515     0.0368186
N           4.2732968     0.7660321    -0.7244851
H           4.2688029     0.7835395    -1.7333651
C           5.1237700     1.4881255     0.0772819
H           5.8064621     2.2125138    -0.3420828
C           4.9097265     1.1037804     1.3823119
H           5.4033873     1.4879455     2.2629948
O           2.9639202    -2.2652075    -0.7654248
20
288_C7H9ClN2O_1-0-12-10 (120,) energy =    -917.0737933
C           2.5446278    -1.1144537    -0.4444380
N           1.3976966    -0.5967056    -1.0104327
C           0.4592133    -1.5284340    -1.6217856
H           0.9888982    -2.4452396    -1.8774810
H           0.0294074    -1.0774108    -2.5237206
H          -0.3598832    -1.7768856    -0.9322864
C           0.8710513     0.7333654    -0.7390402
H          -0.0573973     0.6633290    -0.1550708
H           1.5895281     1.3223211    -0.1702765
H           0.6417333     1.2579194    -1.6760156
C           4.0188657     0.0457905     1.3858950
Cl          3.5551271    -0.8756032     2.7835935
C           3.5225034    -0.1268200     0.1065115
N           4.1262519     0.8421766    -0.6720340
H           4.0115764     0.9121285    -1.6721336
C           5.0014875     1.5830737     0.0812613
H           5.5964498     2.3680866    -0.3622330
C           4.9464289     1.1206642     1.3784159
H           5.4999635     1.4964256     2.2265107
O           2.7829564    -2.3166422    -0.4191752
20
288_C7H9ClN2O_1-0-12-10 (135,) energy =    -917.0748306
C           1.8092654     0.6022939    -0.8005889
N           1.2541578    -0.6367785    -0.5208688
C          -0.0577936    -0.9164667    -1.0920955
H          -0.6096013     0.0172943    -1.1939620
H          -0.5996407    -1.6027199    -0.4318389
H           0.0257271    -1.3793288    -2.0859227
C           2.0404180    -1.8196441    -0.1891189
H           3.0535376    -1.5419867     0.0990611
H           1.5743519    -2.3723160     0.6367209
H           2.1020754    -2.4949919    -1.0548550
C           4.2603343     1.4912596    -0.5933190
Cl          4.5879013     1.9109858    -2.2447149
C           3.0875855     0.9297408    -0.1138721
N           3.2903173     0.7229109     1.2391356
H           2.5691313     0.4041301     1.8690034
C           4.5328945     1.1646360     1.6092862
H           4.8608341     1.1191605     2.6376391
C           5.1737424     1.6348509     0.4820517
H           6.1750554     2.0358138     0.4235545
O           1.2546943     1.4188703    -1.5268803
20
288_C7H9ClN2O_1-0-12-10 (150,) energy =    -917.0753197
C           1.8824682     0.5177873    -0.8781942
N           1.2507461    -0.6562742    -0.4740749
C          -0.0705266    -0.9004505    -1.0430805
H          -0.5981230     0.0469423    -1.1499467
H          -0.6283969    -1.5643703    -0.3739792
H          -0.0068741    -1.3718118    -2.0345185
C           1.9897121    -1.8717548    -0.1394984
H           3.0190882    -1.6377343     0.1301791
H           1.5115941    -2.3919471     0.7000480
H           2.0095140    -2.5612101    -0.9966114
C           4.2580413     1.5665968    -0.5976185
Cl          4.5780255     2.1014229    -2.2151738
C           3.1342082     0.8726589    -0.1694086
N           3.3358704     0.6213219     1.1779130
H           2.6254653     0.2331738     1.7806692
C           4.5270410     1.1517741     1.5903892
H           4.8458266     1.0813070     2.6203049
C           5.1401633     1.7323626     0.4985819
H           6.1040684     2.2194413     0.4774339
O           1.3870546     1.2695240    -1.7091128
20
288_C7H9ClN2O_1-0-12-10 (165,) energy =    -917.0746864
C           1.9562734     0.4417989    -0.9447615
N           1.2463669    -0.6556965    -0.4446828
C          -0.0840475    -0.8501693    -1.0140778
H          -0.5704394     0.1170736    -1.1391139
H          -0.6706266    -1.4742406    -0.3315983
H          -0.0430673    -1.3423653    -1.9966138
C           1.9217953    -1.9082714    -0.1016653
H           2.9677455    -1.7303417     0.1480594
H           1.4279251    -2.3872195     0.7529532
H           1.8909305    -2.6121051    -0.9471213
C           4.2442318     1.6420387    -0.5859953
Cl          4.5428957     2.2938671    -2.1628152
C           3.1874957     0.8155560    -0.2177512
N           3.3901654     0.5241518     1.1232272
H           2.6941536     0.0733733     1.6984740
C           4.5176527     1.1431403     1.5831715
H           4.8279172     1.0496125     2.6139479
C           5.0900967     1.8328946     0.5330323
H           6.0053847     2.4061481     0.5533330
O           1.5187004     1.1331552    -1.8561194
20
288_C7H9ClN2O_1-0-12-10 (180,) energy =    -917.0725655
C           2.0894168     0.4639122    -1.0062526
N           1.5416165    -0.8171403    -0.8258869
C           0.6476181    -1.2567542    -1.8945161
H           1.0813790    -1.0005478    -2.8611819
H          -0.3426761    -0.7833667    -1.8274958
H           0.5261534    -2.3426131    -1.8219534
C           1.1001406    -1.2525828     0.5024761
H           1.2416497    -2.3344439     0.6180110
H           1.6543945    -0.7357456     1.2866856
H           0.0315337    -1.0345671     0.6508811
C           3.9763680     1.9956838    -0.0724942
Cl          3.5585396     3.5297895    -0.7576716
C           3.2282277     0.8214553    -0.1367103
N           3.9584566    -0.1197111     0.5784527
H           3.7656548    -1.1091592     0.5371190
C           5.1030021     0.4341279     1.0745289
H           5.8043602    -0.1507641     1.6522397
C           5.1344694     1.7642356     0.7064556
H           5.8895437     2.4931028     0.9620007
O           1.7470106     1.1825443    -1.9364927
