23
452_C11H11N_4-6-15-16 (-165,) energy =    -480.5338473
C           6.0554722     1.0240614     0.0679381
H           6.9482356     1.6297482     0.1960740
C           6.1466334    -0.3685061    -0.0056761
H           7.1157077    -0.8559980     0.0646263
C           5.0040653    -1.1421131    -0.1765278
H           5.1002975    -2.2201015    -0.2599488
C           3.7243914    -0.5558955    -0.2843025
C           3.6507273     0.8471107    -0.1785325
H           2.6903296     1.3473716    -0.1818595
C           4.7996485     1.6223614    -0.0167156
H           4.7041213     2.7026227     0.0597935
C           1.1271130    -3.1968344    -0.1406170
H           0.7234137    -4.1732951     0.0899346
C           2.4627313    -2.7642684     0.0265468
H           3.2723882    -3.3397123     0.4532941
C           2.5542847    -1.4373983    -0.3855304
N           1.2744059    -1.0558417    -0.7870127
C           0.8690256     0.1745711    -1.4505895
H           0.6117635     0.9632947    -0.7337426
H          -0.0115739    -0.0334925    -2.0632461
H           1.6659852     0.5365393    -2.1036402
C           0.4233528    -2.1278863    -0.6495836
H          -0.6133262    -2.0387008    -0.9433279
23
452_C11H11N_4-6-15-16 (-150,) energy =    -480.5356824
C           6.0312625     1.0259357     0.0196231
H           6.9242681     1.6381163     0.1108782
C           6.1362548    -0.3535807    -0.1759205
H           7.1151749    -0.8217278    -0.2408109
C           4.9919945    -1.1356080    -0.3030643
H           5.0844748    -2.2025068    -0.4836382
C           3.7050341    -0.5652328    -0.2307383
C           3.6177340     0.8227244    -0.0106397
H           2.6471453     1.2917804     0.1120858
C           4.7658408     1.6069262     0.1022440
H           4.6672112     2.6760384     0.2727710
C           1.0841500    -3.1822785    -0.0655220
H           0.6577193    -4.1425467     0.1910562
C           2.4095717    -2.7449023     0.1713001
H           3.1915748    -3.2936004     0.6785488
C           2.5320631    -1.4445430    -0.3047391
N           1.2926178    -1.0852632    -0.8258298
C           0.9519223     0.1289748    -1.5506608
H           0.5819440     0.9163779    -0.8829198
H           0.1707015    -0.1024824    -2.2793129
H           1.8259096     0.5055275    -2.0856548
C           0.4246377    -2.1433679    -0.6857569
H          -0.5889785    -2.0681000    -1.0544221
23
452_C11H11N_4-6-15-16 (-135,) energy =    -480.5359480
C           6.0118614     1.0391884    -0.0178535
H           6.9040872     1.6570621     0.0363378
C           6.1131090    -0.3202622    -0.3216433
H           7.0867871    -0.7651550    -0.5104394
C           4.9678605    -1.1099545    -0.4014438
H           5.0475200    -2.1611604    -0.6629214
C           3.6928070    -0.5642328    -0.1622722
C           3.6086798     0.8045443     0.1531212
H           2.6416173     1.2445074     0.3790179
C           4.7541658     1.5972205     0.2174677
H           4.6639216     2.6514820     0.4666662
C           1.0440633    -3.1587490    -0.0043781
H           0.5953963    -4.1047852     0.2669655
C           2.3503680    -2.7095014     0.3130240
H           3.0967946    -3.2339005     0.8946583
C           2.5105096    -1.4369097    -0.2178434
N           1.3238439    -1.1098296    -0.8633105
C           1.0416360     0.0935798    -1.6279813
H           0.6228016     0.8901927    -1.0011038
H           0.3198614    -0.1466150    -2.4130434
H           1.9565329     0.4630209    -2.0955562
C           0.4400882    -2.1560388    -0.7318343
H          -0.5433251    -2.0980678    -1.1774178
23
452_C11H11N_4-6-15-16 (-120,) energy =    -480.5349744
C           5.9895318     1.0557484    -0.0451795
H           6.8786081     1.6801729    -0.0196592
C           6.0739480    -0.2697877    -0.4756487
H           7.0294916    -0.6798899    -0.7923852
C           4.9315322    -1.0688206    -0.5160607
H           4.9923563    -2.0945988    -0.8682266
C           3.6848275    -0.5650454    -0.1068612
C           3.6157176     0.7713679     0.3248074
H           2.6636582     1.1736450     0.6609835
C           4.7554512     1.5744707     0.3523080
H           4.6816855     2.6033735     0.6951666
C           0.9965820    -3.1262270     0.0661523
H           0.5208082    -4.0513282     0.3625706
C           2.2831026    -2.6648434     0.4484348
H           2.9866890    -3.1603709     1.1041710
C           2.4908174    -1.4311126    -0.1483182
N           1.3622718    -1.1432949    -0.9044355
C           1.1414465     0.0376083    -1.7212382
H           0.6959512     0.8577845    -1.1449932
H           0.4666304    -0.2188121    -2.5421167
H           2.0885083     0.3828262    -2.1411428
C           0.4570939    -2.1705169    -0.7671610
H          -0.4935841    -2.1327725    -1.2808317
23
452_C11H11N_4-6-15-16 (-105,) energy =    -480.5336445
C           5.9692013     1.0782585    -0.0467359
H           6.8533909     1.7101239    -0.0326156
C           6.0190282    -0.1849852    -0.6388739
H           6.9421670    -0.5388762    -1.0906379
C           4.8825526    -0.9946314    -0.6593317
H           4.9170908    -1.9755082    -1.1251141
C           3.6806559    -0.5614469    -0.0763210
C           3.6450196     0.7127624     0.5142341
H           2.7235978     1.0564424     0.9771656
C           4.7783278     1.5259880     0.5288849
H           4.7337209     2.5065041     0.9959410
C           0.9392752    -3.0719042     0.1585895
H           0.4292171    -3.9625017     0.5003623
C           2.2107305    -2.5986717     0.5807624
H           2.8665709    -3.0516925     1.3123396
C           2.4792419    -1.4275396    -0.1068000
N           1.4072501    -1.1896765    -0.9547543
C           1.2539088    -0.0516707    -1.8438845
H           0.8498164     0.8242235    -1.3217152
H           0.5712530    -0.3225543    -2.6532910
H           2.2204354     0.2177723    -2.2759501
C           0.4712877    -2.1844162    -0.7854646
H          -0.4463958    -2.1745738    -1.3571594
23
452_C11H11N_4-6-15-16 (-90,) energy =    -480.5330696
C           5.9536936     1.0987865    -0.0230968
H           6.8372873     1.7312580     0.0005595
C           5.9417092    -0.0598435    -0.8019421
H           6.8171371    -0.3333238    -1.3853213
C           4.8077743    -0.8730679    -0.8292520
H           4.7998004    -1.7799599    -1.4278770
C           3.6671998    -0.5411125    -0.0805665
C           3.6945057     0.6256811     0.6997549
H           2.8207264     0.8855605     1.2912278
C           4.8279093     1.4391624     0.7292722
H           4.8330684     2.3368900     1.3421105
C           0.8668600    -2.9776737     0.2664762
H           0.3197198    -3.8175206     0.6732898
C           2.1272567    -2.4856471     0.7026323
H           2.7361120    -2.8725619     1.5089212
C           2.4659227    -1.4124574    -0.1020860
N           1.4427411    -1.2445616    -1.0233566
C           1.3448567    -0.1771370    -2.0030750
H           0.9390708     0.7425821    -1.5638275
H           0.6878058    -0.4979109    -2.8154638
H           2.3318125     0.0425758    -2.4165347
C           0.4707505    -2.1916021    -0.7929628
H          -0.4178271    -2.2240982    -1.4081669
23
452_C11H11N_4-6-15-16 (-75,) energy =    -480.5337276
C           5.9582188     1.1028123     0.0147676
H           6.8481258     1.7255803     0.0528848
C           5.8584093     0.0782901    -0.9289252
H           6.6746159    -0.1040766    -1.6232511
C           4.7189708    -0.7254091    -0.9714770
H           4.6535222    -1.5386094    -1.6898396
C           3.6507967    -0.5083183    -0.0845788
C           3.7689750     0.5197990     0.8640419
H           2.9538735     0.6863165     1.5627155
C           4.9126759     1.3179905     0.9142155
H           4.9862745     2.1093236     1.6557568
C           0.8097657    -2.8731441     0.3666717
H           0.2322944    -3.6596353     0.8337268
C           2.0524059    -2.3455533     0.8103978
H           2.6178723    -2.6499508     1.6811177
C           2.4545323    -1.3817433    -0.0981070
N           1.4799299    -1.3074788    -1.0830995
C           1.4175071    -0.3245056    -2.1508626
H           0.9952169     0.6257185    -1.8010305
H           0.7894452    -0.7131772    -2.9565326
H           2.4169857    -0.1338119    -2.5469582
C           0.4810043    -2.2094214    -0.7947213
H          -0.3785461    -2.2990639    -1.4445468
23
452_C11H11N_4-6-15-16 (-60,) energy =    -480.5351310
C           5.7387992     1.0436278     0.0188562
H           6.6492124     1.5755493     0.2819360
C           4.4930715     1.6431454     0.2159049
H           4.4307445     2.6489141     0.6235576
C           3.3252936     0.9636464    -0.1289819
H           2.3616390     1.4506196    -0.0046971
C           3.3767220    -0.3389789    -0.6566903
C           4.6383574    -0.9259835    -0.8557178
H           4.6903847    -1.9303044    -1.2662917
C           5.8069012    -0.2409120    -0.5239985
H           6.7722469    -0.7144557    -0.6834313
C           0.5891381    -2.2451991    -2.2076426
H           0.0562708    -2.7702400    -2.9889431
C           1.8574560    -1.6171074    -2.3103028
H           2.4864297    -1.5545567    -3.1883491
C           2.1587697    -1.0559325    -1.0788586
N           1.1060269    -1.3506053    -0.2227849
C           0.9965000    -0.9799024     1.1775500
H           0.5352477     0.0070226     1.3060519
H           1.9871782    -0.9626293     1.6367079
H           0.3829449    -1.7217641     1.6953999
C           0.1545835    -2.0665248    -0.9120757
H          -0.7497761    -2.3913802    -0.4164450
23
452_C11H11N_4-6-15-16 (-45,) energy =    -480.5360040
C           5.7521432     1.0443441     0.0021413
H           6.6603015     1.5842537     0.2561083
C           4.5034323     1.5679626     0.3408809
H           4.4343932     2.5256165     0.8506357
C           3.3370202     0.8785824     0.0106566
H           2.3726845     1.3210003     0.2426324
C           3.3923115    -0.3621358    -0.6512302
C           4.6595023    -0.8756524    -0.9860234
H           4.7201791    -1.8380955    -1.4857876
C           5.8232509    -0.1783628    -0.6693508
H           6.7899342    -0.5971073    -0.9372681
C           0.6357453    -2.3248901    -2.1732455
H           0.1250984    -2.8879484    -2.9427342
C           1.9263801    -1.7449289    -2.2521325
H           2.5940612    -1.7546652    -3.1032811
C           2.1861158    -1.1021936    -1.0491788
N           1.0753614    -1.2927881    -0.2352840
C           0.9128436    -0.8697183     1.1458215
H           0.4707103     0.1313111     1.2197295
H           1.8806140    -0.8614914     1.6512172
H           0.2567013    -1.5780627     1.6583473
C           0.1408506    -2.0345999    -0.9201338
H          -0.7959335    -2.2996460    -0.4498137
23
452_C11H11N_4-6-15-16 (-30,) energy =    -480.5355130
C           5.7628528     1.0520048    -0.0153881
H           6.6696672     1.5995163     0.2263254
C           4.5239721     1.4998638     0.4424514
H           4.4581887     2.4083379     1.0359056
C           3.3580413     0.7995385     0.1318979
H           2.4044669     1.2000544     0.4585931
C           3.4006259    -0.3754890    -0.6426169
C           4.6628757    -0.8173777    -1.0892660
H           4.7254318    -1.7380915    -1.6616869
C           5.8229825    -0.1097952    -0.7895502
H           6.7813071    -0.4754383    -1.1495197
C           0.6746451    -2.3931334    -2.1384468
H           0.1857569    -2.9884864    -2.8975967
C           1.9839253    -1.8575863    -2.1838978
H           2.6849373    -1.9313982    -3.0043007
C           2.2087168    -1.1498041    -1.0082035
N           1.0447633    -1.2442599    -0.2502845
C           0.8301514    -0.7881259     1.1144763
H           0.4350742     0.2343142     1.1490516
H           1.7664139    -0.8214541     1.6749838
H           0.1108890    -1.4534299     1.5989616
C           0.1261806    -2.0058170    -0.9352106
H          -0.8385206    -2.2190631    -0.4960678
23
452_C11H11N_4-6-15-16 (-15,) energy =    -480.5336028
C           5.7884394     1.0721718    -0.0447761
H           6.6965312     1.6249815     0.1789203
C           4.5774799     1.4310814     0.5435861
H           4.5320068     2.2758431     1.2264061
C           3.4089991     0.7223676     0.2603141
H           2.4825575     1.0666901     0.7020545
C           3.4132032    -0.3686702    -0.6308052
C           4.6544497    -0.7249172    -1.2028901
H           4.7063332    -1.5877329    -1.8592051
C           5.8155312    -0.0124872    -0.9257549
H           6.7510112    -0.3155471    -1.3892010
C           0.7316470    -2.4701126    -2.0906817
H           0.2719276    -3.1075563    -2.8335670
C           2.0471894    -1.9537283    -2.1049817
H           2.7774697    -2.0882789    -2.8907756
C           2.2337811    -1.1782041    -0.9630686
N           1.0266970    -1.2040745    -0.2641754
C           0.7402157    -0.6851028     1.0651335
H           0.4537124     0.3728144     1.0408537
H           1.6078762    -0.8024130     1.7180470
H          -0.0898304    -1.2556748     1.4885949
C           0.1325225    -1.9986001    -0.9437494
H          -0.8542972    -2.1734093    -0.5381190
23
452_C11H11N_4-6-15-16 (0,) energy =    -480.5316746
C           5.8129748     1.0723444    -0.0575062
H           6.7234404     1.6307790     0.1407252
C           4.6913822     1.2288665     0.7519172
H           4.7175956     1.9156436     1.5943349
C           3.5196443     0.5128923     0.5003721
H           2.6846192     0.6789012     1.1645201
C           3.4233433    -0.3923894    -0.5762972
C           4.5768391    -0.5325767    -1.3826784
H           4.5614449    -1.2146163    -2.2251206
C           5.7420972     0.1807149    -1.1309490
H           6.6023791     0.0379253    -1.7800249
C           0.8103494    -2.6451522    -1.9551607
H           0.4007669    -3.3740215    -2.6409173
C           2.1082573    -2.0916573    -1.9754271
H           2.8796863    -2.3294366    -2.6933044
C           2.2335621    -1.1894411    -0.9190084
N           1.0032999    -1.1972092    -0.2548484
C           0.5761267    -0.4467109     0.9148385
H           0.6087244     0.6323606     0.7347078
H           1.1874381    -0.6844567     1.7909730
H          -0.4568848    -0.7239980     1.1352143
C           0.1551930    -2.0760090    -0.8869803
H          -0.8500297    -2.2194843    -0.5161116
23
452_C11H11N_4-6-15-16 (15,) energy =    -480.5336028
C           5.7886708     1.0717131    -0.0444319
H           6.6847499     1.6519031     0.1572903
C           4.7779604     0.9744026     0.9097198
H           4.8842467     1.4734853     1.8696947
C           3.6244335     0.2316048     0.6537998
H           2.8877603     0.1435688     1.4421823
C           3.4476510    -0.4471212    -0.5679021
C           4.4773188    -0.3213376    -1.5264732
H           4.3573261    -0.7925538    -2.4967546
C           5.6291283     0.4122274    -1.2662989
H           6.4009886     0.4819183    -2.0286146
C           0.8837456    -2.8166035    -1.8129053
H           0.5005442    -3.6283318    -2.4160694
C           2.1756060    -2.2462550    -1.8704404
H           2.9895607    -2.5714593    -2.5033732
C           2.2560507    -1.2289155    -0.9224122
N           1.0219735    -1.1933386    -0.2728262
C           0.5341203    -0.2155803     0.6886528
H           0.9131624     0.7803170     0.4490580
H           0.8230399    -0.4686657     1.7154618
H          -0.5569443    -0.1914823     0.6353227
C           0.1960700    -2.1434190    -0.8276898
H          -0.8227538    -2.2453291    -0.4805271
23
452_C11H11N_4-6-15-16 (30,) energy =    -480.5355129
C           5.7432120     1.0876252    -0.0293346
H           6.6317151     1.6811170     0.1677115
C           4.8069330     0.8620134     0.9793655
H           4.9678792     1.2706110     1.9738384
C           3.6659688     0.0989970     0.7298068
H           2.9818028    -0.1023288     1.5470066
C           3.4266845    -0.4557774    -0.5419214
C           4.3802790    -0.2097622    -1.5510853
H           4.2027719    -0.6004209    -2.5486554
C           5.5242667     0.5403558    -1.2963301
H           6.2414616     0.7115070    -2.0950913
C           0.8675464    -2.8784013    -1.6911021
H           0.4823059    -3.7216987    -2.2480399
C           2.1775480    -2.3454569    -1.7446386
H           3.0069945    -2.7249558    -2.3259586
C           2.2504409    -1.2726147    -0.8628968
N           0.9976545    -1.1527008    -0.2676156
C           0.5312361    -0.1017606     0.6237066
H           1.0386142     0.8380296     0.3971974
H           0.7034784    -0.3499759     1.6779186
H          -0.5422388     0.0371940     0.4720700
C           0.1645050    -2.1199439    -0.7805427
H          -0.8669258    -2.1741930    -0.4608725
23
452_C11H11N_4-6-15-16 (45,) energy =    -480.5360041
C           5.7277446     1.0988668    -0.0206935
H           6.6111715     1.7019991     0.1704631
C           4.8677299     0.7584248     1.0246194
H           5.0855051     1.0862701     2.0379348
C           3.7365669    -0.0201317     0.7814453
H           3.1019400    -0.3124781     1.6128836
C           3.4280064    -0.4622868    -0.5184916
C           4.3060302    -0.1105696    -1.5610429
H           4.0755722    -0.4332069    -2.5722490
C           5.4440210     0.6541300    -1.3140156
H           6.1054590     0.9139036    -2.1365856
C           0.8723249    -2.9230489    -1.6050396
H           0.4856470    -3.7884851    -2.1260102
C           2.2022907    -2.4342296    -1.6288689
H           3.0450382    -2.8640090    -2.1536648
C           2.2663620    -1.3145014    -0.8104763
N           0.9906562    -1.1088477    -0.2978201
C           0.5477145    -0.0127768     0.5479339
H           1.1291143     0.8855866     0.3313346
H           0.6515722    -0.2485034     1.6140884
H          -0.5052407     0.1932347     0.3385406
C           0.1507946    -2.0844113    -0.7831096
H          -0.8943981    -2.0909765    -0.5064377
23
452_C11H11N_4-6-15-16 (60,) energy =    -480.5351306
C           5.7107274     1.1074391    -0.0115984
H           6.5887203     1.7202770     0.1743062
C           4.9430539     0.6377395     1.0561766
H           5.2278397     0.8751443     2.0780241
C           3.8210102    -0.1551319     0.8179412
H           3.2489277    -0.5452322     1.6556603
C           3.4289047    -0.4762067    -0.4939824
C           4.2159432    -0.0018293    -1.5576749
H           3.9247888    -0.2468005    -2.5751007
C           5.3462450     0.7793408    -1.3188418
H           5.9393237     1.1382363    -2.1561028
C           0.8872309    -2.9823187    -1.5277524
H           0.5059871    -3.8720585    -2.0105228
C           2.2317901    -2.5290798    -1.5080573
H           3.0891941    -3.0070819    -1.9628692
C           2.2783062    -1.3573811    -0.7683727
N           0.9820363    -1.0780734    -0.3564190
C           0.5480736     0.0640656     0.4294295
H           1.1729325     0.9304515     0.2028153
H           0.6039300    -0.1340996     1.5069086
H          -0.4873994     0.3015547     0.1716108
C           0.1431710    -2.0679736    -0.8138811
H          -0.9149284    -2.0317687    -0.5944139
23
452_C11H11N_4-6-15-16 (75,) energy =    -480.5337270
C           5.9515945     1.1202543    -0.0228410
H           6.8165449     1.7552289     0.1500541
C           5.3458035     0.4536748     1.0443342
H           5.7430103     0.5621613     2.0503153
C           4.2405426    -0.3673396     0.8198765
H           3.7857162    -0.9054914     1.6476140
C           3.7089890    -0.5226252    -0.4716448
C           4.3336760     0.1469972    -1.5357099
H           3.9378511     0.0221155    -2.5396949
C           5.4456422     0.9606670    -1.3139676
H           5.9161205     1.4711821    -2.1503518
C           1.1699777    -3.0907586    -1.3801450
H           0.7944203    -4.0231871    -1.7797803
C           2.5219922    -2.6539470    -1.3548041
H           3.3876503    -3.1860328    -1.7264103
C           2.5597710    -1.4225395    -0.7237575
N           1.2581357    -1.0977025    -0.3691543
C           0.8135976     0.1722391     0.1784647
H           1.5373631     0.5434509     0.9069375
H          -0.1461423     0.0267719     0.6807546
H           0.6904932     0.9294185    -0.6058345
C           0.4171172    -2.1092594    -0.7740691
H          -0.6468128    -2.0402934    -0.5939881
23
452_C11H11N_4-6-15-16 (90,) energy =    -480.5330708
C           5.9301639     1.1284531     0.0081452
H           6.7838679     1.7768968     0.1871107
C           5.4641817     0.2876293     1.0205892
H           5.9554884     0.2780646     1.9901369
C           4.3698202    -0.5469724     0.7888596
H           4.0112885    -1.2085879     1.5728182
C           3.7223830    -0.5537873    -0.4570974
C           4.2034014     0.2952685    -1.4664424
H           3.7159841     0.2894746    -2.4376582
C           5.2983012     1.1293661    -1.2368643
H           5.6598981     1.7775166    -2.0310055
C           1.1661502    -3.1529762    -1.2376242
H           0.7855567    -4.1141096    -1.5563251
C           2.5273083    -2.7460853    -1.1865398
H           3.3950307    -3.3322778    -1.4584742
C           2.5653256    -1.4494668    -0.7055598
N           1.2576747    -1.0602561    -0.4558856
C           0.8288180     0.2584452    -0.0246840
H           1.5370415     0.6632959     0.7018835
H          -0.1522651     0.1766014     0.4499818
H           0.7558596     0.9581605    -0.8664228
C           0.4104276    -2.0936763    -0.7859650
H          -0.6585394    -1.9839577    -0.6660915
23
452_C11H11N_4-6-15-16 (105,) energy =    -480.5336457
C           5.9314263     1.1178247     0.0412717
H           6.7813323     1.7688227     0.2286355
C           5.5946376     0.1219259     0.9597782
H           6.1800796    -0.0029636     1.8670683
C           4.5014224    -0.7117192     0.7201083
H           4.2335067    -1.4833498     1.4364014
C           3.7343742    -0.5734390    -0.4480561
C           4.0840849     0.4342541    -1.3623233
H           3.5042855     0.5459323    -2.2749025
C           5.1721996     1.2729538    -1.1204060
H           5.4317045     2.0431229    -1.8422381
C           1.1735473    -3.2020226    -1.0850343
H           0.7921020    -4.1874145    -1.3166182
C           2.5365291    -2.8075321    -1.0112850
H           3.4064549    -3.4286433    -1.1786564
C           2.5736863    -1.4613164    -0.6907840
N           1.2619440    -1.0332234    -0.5466566
C           0.8308751     0.3188896    -0.2382717
H           1.5162775     0.7752946     0.4796963
H          -0.1673051     0.2809128     0.2051965
H           0.7936381     0.9509321    -1.1339415
C           0.4149701    -2.0893865    -0.7943597
H          -0.6564743    -1.9558429    -0.7374147
23
452_C11H11N_4-6-15-16 (120,) energy =    -480.5349751
C           5.9486004     1.0973554     0.0569234
H           6.8073934     1.7378672     0.2393035
C           5.7104305    -0.0091136     0.8745342
H           6.3812248    -0.2302586     1.7007932
C           4.6036809    -0.8261721     0.6451068
H           4.4075422    -1.6765045     1.2919477
C           3.7234939    -0.5660300    -0.4194492
C           3.9772136     0.5509675    -1.2348188
H           3.3179548     0.7581314    -2.0736936
C           5.0762278     1.3759372    -0.9972349
H           5.2576608     2.2312187    -1.6431417
C           1.1778613    -3.2196579    -0.9621920
H           0.8036265    -4.2208277    -1.1284304
C           2.5352470    -2.8217980    -0.8471569
H           3.4098939    -3.4548310    -0.9169393
C           2.5646066    -1.4500550    -0.6499151
N           1.2482198    -1.0092272    -0.6209300
C           0.7938491     0.3562727    -0.4226719
H           1.4679854     0.8789299     0.2592921
H          -0.2059174     0.3370053     0.0188236
H           0.7494611     0.9151381    -1.3654231
C           0.4113737    -2.0837101    -0.8168635
H          -0.6608857    -1.9453584    -0.8303153
23
452_C11H11N_4-6-15-16 (135,) energy =    -480.5359480
C           5.9802203     1.0704936     0.0543332
H           6.8545765     1.6949022     0.2167821
C           5.8082641    -0.1062336     0.7867246
H           6.5477567    -0.3998532     1.5273751
C           4.6816446    -0.9011107     0.5855928
H           4.5380990    -1.8022544     1.1747281
C           3.7061842    -0.5488472    -0.3658316
C           3.8994200     0.6340359    -1.1030583
H           3.1819592     0.9113233    -1.8699903
C           5.0195995     1.4367801    -0.8899190
H           5.1486160     2.3441427    -1.4745156
C           1.1831296    -3.2230733    -0.8705667
H           0.8187304    -4.2334633    -0.9980002
C           2.5281738    -2.8160595    -0.6856991
H           3.4042520    -3.4504627    -0.6640041
C           2.5498131    -1.4323050    -0.5773686
N           1.2356183    -0.9923385    -0.6827673
C           0.7527612     0.3729122    -0.5581333
H           1.3905957     0.9342842     0.1275548
H          -0.2631012     0.3540445    -0.1548403
H           0.7349268     0.8924111    -1.5239483
C           0.4124644    -2.0805475    -0.8589979
H          -0.6562505    -1.9460300    -0.9525791
23
452_C11H11N_4-6-15-16 (150,) energy =    -480.5356822
C           6.0156317     1.0488348     0.0323704
H           6.9066464     1.6561226     0.1659497
C           5.8947734    -0.1824525     0.6817342
H           6.6931537    -0.5381412     1.3280554
C           4.7487105    -0.9550323     0.5183147
H           4.6520287    -1.8969664     1.0501376
C           3.6891767    -0.5256964    -0.3062737
C           3.8374971     0.7068089    -0.9706381
H           3.0725274     1.0452425    -1.6615600
C           4.9808118     1.4863106    -0.7943069
H           5.0675247     2.4332614    -1.3211612
C           1.1930628    -3.2228544    -0.7955878
H           0.8410089    -4.2406115    -0.8956457
C           2.5178705    -2.7988282    -0.5326583
H           3.3904031    -3.4290628    -0.4259067
C           2.5324486    -1.4092091    -0.4956794
N           1.2296187    -0.9836328    -0.7372805
C           0.7131490     0.3748021    -0.6767408
H           1.2829143     0.9621848     0.0459352
H          -0.3302856     0.3413330    -0.3528288
H           0.7584588     0.8758342    -1.6512483
C           0.4236982    -2.0852172    -0.9091240
H          -0.6359820    -1.9620056    -1.0848863
23
452_C11H11N_4-6-15-16 (165,) energy =    -480.5338473
C           6.0687839     1.0145753     0.0147155
H           6.9685070     1.6152621     0.1145974
C           6.0060701    -0.2677465     0.5666974
H           6.8607675    -0.6733598     1.1021112
C           4.8515767    -1.0327490     0.4440508
H           4.8140017    -2.0148010     0.9049518
C           3.7115684    -0.5465571    -0.2318955
C           3.8051761     0.7365791    -0.8062466
H           2.9895578     1.1333769    -1.3978292
C           4.9613933     1.5065094    -0.6737037
H           4.9967453     2.4929867    -1.1292833
C           1.2570474    -3.2897687    -0.6695227
H           0.9244156    -4.3171471    -0.7282413
C           2.5543305    -2.8298641    -0.3463695
H           3.4208132    -3.4461907    -0.1510876
C           2.5554711    -1.4381283    -0.3901728
N           1.2667525    -1.0501793    -0.7556487
C           0.7050140     0.2922909    -0.7835578
H           1.1488354     0.9081664     0.0015071
H          -0.3704502     0.2241845    -0.6023047
H           0.8611360     0.7837152    -1.7511686
C           0.4868065    -2.1730983    -0.9077952
H          -0.5603109    -2.0763539    -1.1590609
23
452_C11H11N_4-6-15-16 (180,) energy =    -480.5316745
C           6.0852195     1.0197016     0.0475381
H           6.9878405     1.6125656     0.1653723
C           6.0977761    -0.3559555     0.2918651
H           7.0161646    -0.8469247     0.6037793
C           4.9421683    -1.1120155     0.1405360
H           4.9924707    -2.1764922     0.3392292
C           3.7156877    -0.5341330    -0.2623644
C           3.7284492     0.8551019    -0.5028705
H           2.8345238     1.3748976    -0.8137029
C           4.8906456     1.6133042    -0.3502663
H           4.8511788     2.6817526    -0.5473847
C           1.1878585    -3.2534189    -0.4033531
H           0.8282666    -4.2690471    -0.3113300
C           2.4986550    -2.7887989    -0.1640131
H           3.3327454    -3.4001753     0.1482178
C           2.5425134    -1.4140084    -0.3958333
N           1.2495937    -1.0442939    -0.7784496
C           0.7274572     0.2640570    -1.1383917
H           0.8137915     0.9738765    -0.3097256
H          -0.3313872     0.1502052    -1.3801254
H           1.2360288     0.6724620    -2.0172031
C           0.4434994    -2.1584929    -0.7791020
H          -0.5994071    -2.0717866    -1.0500779
