30
013_C11H17N2+_1-0-9-8 (-165,) energy =    -538.6676365
C           3.7861649     1.6338163    -0.4670616
C           2.7564067     2.4385596     0.0445886
C           1.4378143     1.9896607     0.0415092
C           1.1175578     0.7305150    -0.4697539
C           2.1334448    -0.0754665    -0.9774378
C           3.4601928     0.3624112    -0.9624870
N           8.0099991     2.4704859    -0.2208442
C           7.3325844     2.1756482    -1.5443354
C           6.0692196     1.3691351    -1.2776625
N           5.1517117     2.1188798    -0.4212779
C           5.7837077     2.2433120     0.9229423
C           4.9492619     2.8691980     2.0437977
C           7.0494769     3.0979962     0.7733710
H           2.9775840     3.4436387     0.3838162
H           0.6559796     2.6373269     0.4271051
H           0.0879156     0.3869402    -0.4781646
H           1.9040251    -1.0586085    -1.3778271
H           4.2248559    -0.3097009    -1.3363172
H           8.3640806     1.5899437     0.1734084
H           8.8272655     3.0756580    -0.3593451
H           7.0964996     3.1410697    -1.9960894
H           8.0491915     1.6355983    -2.1680713
H           5.5962132     1.1913927    -2.2467269
H           6.3431594     0.3808951    -0.8614465
H           6.0905021     1.2369751     1.2736574
H           5.5446971     2.8750754     2.9632477
H           4.6601202     3.8994310     1.8154454
H           4.0480527     2.2882154     2.2377365
H           7.5888156     3.1950118     1.7183523
H           6.8013964     4.0877031     0.3833052
30
013_C11H17N2+_1-0-9-8 (-150,) energy =    -538.6711554
C           3.7853486     1.6233431    -0.4344598
C           2.7490149     2.5121139    -0.1187771
C           1.4231361     2.0830078    -0.1302621
C           1.1138390     0.7634260    -0.4673323
C           2.1411045    -0.1233139    -0.7867870
C           3.4730635     0.2966704    -0.7592663
N           7.9898920     2.4847858    -0.2353833
C           7.2896016     2.2853046    -1.5668012
C           6.0459739     1.4381233    -1.3326521
N           5.1507335     2.1077354    -0.3935139
C           5.7921184     2.1690829     0.9413707
C           4.9295739     2.7503624     2.0639743
C           7.0515661     3.0369712     0.8249511
H           2.9853803     3.5484380     0.0992187
H           0.6306562     2.7861032     0.1085017
H           0.0801535     0.4321620    -0.4868230
H           1.9118930    -1.1516214    -1.0503440
H           4.2546919    -0.4204548    -0.9913546
H           8.3526715     1.5781145     0.0851703
H           8.8038409     3.1001653    -0.3448126
H           7.0289382     3.2796851    -1.9343212
H           8.0025255     1.8089999    -2.2444030
H           5.5382714     1.3179719    -2.2931663
H           6.3565954     0.4285183    -0.9998014
H           6.1048880     1.1514948     1.2538049
H           5.5012558     2.7491168     2.9981274
H           4.6217989     3.7776772     1.8466199
H           4.0339813     2.1482168     2.2197712
H           7.6137630     3.0699364     1.7611578
H           6.7927618     4.0504568     0.5101872
30
013_C11H17N2+_1-0-9-8 (-135,) energy =    -538.6728793
C           3.7962568     1.6396815    -0.4175377
C           2.7576634     2.5709684    -0.3133951
C           1.4299693     2.1440363    -0.3326618
C           1.1311887     0.7862177    -0.4641802
C           2.1654579    -0.1446224    -0.5706332
C           3.4961968     0.2771354    -0.5391339
N           7.9964516     2.4730745    -0.2556573
C           7.2729524     2.3850274    -1.5877414
C           6.0243727     1.5331274    -1.3993994
N           5.1628675     2.1262454    -0.3814502
C           5.8202928     2.1042218     0.9402989
C           4.9501450     2.6438177     2.0778040
C           7.0865622     2.9647094     0.8590411
H           2.9998926     3.6265118    -0.2367532
H           0.6294756     2.8738365    -0.2559688
H           0.0972290     0.4555987    -0.4870827
H           1.9395958    -1.2020094    -0.6724333
H           4.2906505    -0.4612641    -0.6087768
H           8.3463216     1.5387547    -0.0083394
H           8.8204177     3.0797237    -0.3339384
H           7.0171801     3.4081136    -1.8702813
H           7.9706079     1.9578748    -2.3123095
H           5.4888174     1.5037776    -2.3519301
H           6.3312234     0.4940429    -1.1682027
H           6.1261128     1.0702807     1.2036245
H           5.5144424     2.6331019     3.0162159
H           4.6241983     3.6688713     1.8754141
H           4.0630450     2.0234185     2.2125978
H           7.6675239     2.9296785     1.7836974
H           6.8347822     3.9995458     0.6160658
30
013_C11H17N2+_1-0-9-8 (-120,) energy =    -538.6736558
C           3.8150036     1.6743317    -0.3969853
C           2.7811464     2.6073907    -0.5080688
C           1.4542941     2.1754976    -0.5441279
C           1.1577024     0.8132070    -0.4704962
C           2.1904625    -0.1201296    -0.3585200
C           3.5184631     0.3076450    -0.3197306
N           8.0235744     2.4340291    -0.3134703
C           7.2616606     2.4682235    -1.6265125
C           5.9934411     1.6399835    -1.4672785
N           5.1832214     2.1624017    -0.3707964
C           5.8752108     2.0475227     0.9240474
C           5.0345886     2.5585639     2.0971440
C           7.1616326     2.8779103     0.8580113
H           3.0271176     3.6630549    -0.5718770
H           0.6535429     2.9036453    -0.6325160
H           0.1250686     0.4788307    -0.5008135
H           1.9636452    -1.1806066    -0.3001748
H           4.3162652    -0.4256620    -0.2273335
H           8.3441482     1.4724069    -0.1426433
H           8.8674582     3.0148618    -0.3727308
H           7.0295926     3.5171367    -1.8216242
H           7.9255361     2.0794705    -2.4024959
H           5.4247474     1.7120888    -2.3981943
H           6.2694921     0.5742059    -1.3410163
H           6.1607642     0.9951610     1.1314791
H           5.6120554     2.5123659     3.0263435
H           4.7174951     3.5926022     1.9282158
H           4.1417120     1.9446052     2.2253137
H           7.7676403     2.7687888     1.7605504
H           6.9330859     3.9325569     0.6879355
30
013_C11H17N2+_1-0-9-8 (-105,) energy =    -538.6737418
C           3.8126039     1.6913032    -0.3603128
C           2.7986545     2.5919735    -0.6948964
C           1.4751082     2.1549878    -0.7730241
C           1.1633994     0.8194822    -0.5121073
C           2.1759509    -0.0822494    -0.1767026
C           3.5011796     0.3496240    -0.1059127
N           8.0202012     2.4460236    -0.3471269
C           7.2201742     2.5657621    -1.6320164
C           5.9521300     1.7352087    -1.4866919
N           5.1804631     2.1793733    -0.3291009
C           5.9094530     1.9935034     0.9335711
C           5.1026303     2.4529168     2.1515444
C           7.1960913     2.8243484     0.8734334
H           3.0564484     3.6291134    -0.8876740
H           0.6894979     2.8584304    -1.0323781
H           0.1332824     0.4809090    -0.5689742
H           1.9358904    -1.1219078     0.0257104
H           4.2854353    -0.3593528     0.1496381
H           8.3378166     1.4737072    -0.2444462
H           8.8666997     3.0239841    -0.3960438
H           6.9899113     3.6261050    -1.7539506
H           7.8577469     2.2231612    -2.4506129
H           5.3521304     1.8743554    -2.3897542
H           6.2200043     0.6604009    -1.4428360
H           6.2016682     0.9331808     1.0822213
H           5.7031053     2.3634192     3.0627302
H           4.7863284     3.4944637     2.0351314
H           4.2098061     1.8379892     2.2750367
H           7.8288523     2.6632787     1.7494719
H           6.9662089     3.8872930     0.7700430
30
013_C11H17N2+_1-0-9-8 (-90,) energy =    -538.6733679
C           3.7878787     1.6917806    -0.3292722
C           2.8151414     2.5327920    -0.8778991
C           1.4962986     2.0936750    -0.9977975
C           1.1420488     0.8156145    -0.5612447
C           2.1119577    -0.0258140    -0.0133738
C           3.4361091     0.4035820     0.0928366
N           7.9925438     2.4681798    -0.3702963
C           7.1563194     2.6680160    -1.6211234
C           5.8975463     1.8215764    -1.4939672
N           5.1548579     2.1747200    -0.2865934
C           5.9179180     1.9300592     0.9427754
C           5.1476671     2.3356872     2.2042945
C           7.2004002     2.7691238     0.8916797
H           3.0985765     3.5324189    -1.1949813
H           0.7452693     2.7538620    -1.4213563
H           0.1139664     0.4769132    -0.6459834
H           1.8416912    -1.0219716     0.3243908
H           4.1859227    -0.2665508     0.5060655
H           8.3122831     1.4916249    -0.3377762
H           8.8375130     3.0494283    -0.4053291
H           6.9189812     3.7329537    -1.6657961
H           7.7703340     2.3836068    -2.4789754
H           5.2706722     2.0150873    -2.3679511
H           6.1706281     0.7474100    -1.5295259
H           6.2197560     0.8660582     1.0340178
H           5.7787629     2.2178874     3.0912717
H           4.8222630     3.3786059     2.1353840
H           4.2622579     1.7126778     2.3365057
H           7.8568268     2.5601846     1.7396396
H           6.9650067     3.8353713     0.8571378
30
013_C11H17N2+_1-0-9-8 (-75,) energy =    -538.6721776
C           3.7835100     1.6918722    -0.3045671
C           2.8631502     2.4477121    -1.0408255
C           1.5487741     2.0071849    -1.1860578
C           1.1388216     0.8106388    -0.5934485
C           2.0553561     0.0507225     0.1330640
C           3.3787270     0.4777615     0.2645156
N           7.9881432     2.4821904    -0.3996214
C           7.1166336     2.7717782    -1.6066869
C           5.8666426     1.9112059    -1.5033520
N           5.1516362     2.1596757    -0.2540624
C           5.9446525     1.8696260     0.9431598
C           5.2201252     2.2484113     2.2421265
C           7.2310007     2.7052383     0.8978764
H           3.1775226     3.3930907    -1.4752668
H           0.8417044     2.6063593    -1.7520382
H           0.1121762     0.4735141    -0.6979975
H           1.7479391    -0.8856458     0.5893569
H           4.0863126    -0.1432562     0.8067546
H           8.3010201     1.5036546    -0.4426400
H           8.8360782     3.0599082    -0.4182648
H           6.8787102     3.8368751    -1.5673495
H           7.7033502     2.5506107    -2.5014732
H           5.2154869     2.1585605    -2.3442650
H           6.1472021     0.8447546    -1.6244553
H           6.2417845     0.8016391     0.9912603
H           5.8814981     2.1008044     3.1022250
H           4.9073538     3.2969383     2.2102216
H           4.3310523     1.6368441     2.3941769
H           7.9084088     2.4450884     1.7144548
H           6.9999280     3.7724363     0.9336650
30
013_C11H17N2+_1-0-9-8 (-60,) energy =    -538.6693988
C           3.7579761     1.6965062    -0.2864738
C           2.8868280     2.3497620    -1.1705731
C           1.5732468     1.9124004    -1.3238460
C           1.1082376     0.8091500    -0.6049498
C           1.9765115     0.1384801     0.2544090
C           3.2999216     0.5618987     0.3979807
N           7.9658389     2.5069574    -0.4153954
C           7.0640450     2.8935244    -1.5700386
C           5.8277640     2.0121513    -1.5087087
N           5.1313844     2.1334563    -0.2317936
C           5.9431363     1.8193943     0.9438851
C           5.2575594     2.1989228     2.2674065
C           7.2382908     2.6454772     0.9085891
H           3.2245202     3.2339076    -1.7051608
H           0.9099926     2.4428246    -2.0006679
H           0.0821276     0.4739737    -0.7189047
H           1.6351104    -0.7335134     0.8045176
H           3.9686935    -0.0125293     1.0309802
H           8.2670263     1.5314547    -0.5391578
H           8.8187816     3.0776470    -0.4113264
H           6.8213354     3.9496040    -1.4331036
H           7.6263871     2.7538640    -2.4962445
H           5.1607341     2.3121575    -2.3173320
H           6.1248307     0.9645175    -1.7238769
H           6.2274384     0.7476361     0.9715777
H           5.9456568     2.0450754     3.1053763
H           4.9557647     3.2508791     2.2451581
H           4.3676488     1.6003419     2.4535657
H           7.9298584     2.3294079     1.6926857
H           7.0195030     3.7103427     1.0178874
30
013_C11H17N2+_1-0-9-8 (-45,) energy =    -538.6676905
C           3.8973562     1.4440423    -0.4338181
C           2.8167806     2.2894207    -0.7151351
C           1.5314018     1.7591178    -0.8422294
C           1.3137830     0.3924538    -0.6620184
C           2.3880561    -0.4488834    -0.3643399
C           3.6766383     0.0735410    -0.2578433
N           7.7510801     1.9411735    -0.2412178
C           7.2388309     2.6638080    -1.4753129
C           5.7220584     2.9104364    -1.2755765
N           5.2426783     1.9446841    -0.2904480
C           5.6796275     2.2512684     1.0894943
C           4.9359289     3.3824769     1.8108465
C           7.1993625     2.5585137     1.0256198
H           2.9750963     3.3571354    -0.8419331
H           0.6995562     2.4183388    -1.0719113
H           0.3122259    -0.0160474    -0.7554545
H           2.2262285    -1.5142206    -0.2297916
H           4.5198858    -0.5802853    -0.0505269
H           7.3930442     0.9796824    -0.2930535
H           8.7755341     1.9103686    -0.2356841
H           7.8153962     3.5863193    -1.5740572
H           7.4519009     2.0125035    -2.3256116
H           5.5499008     3.9594468    -0.9916656
H           5.2038794     2.7433790    -2.2210595
H           5.5390511     1.3273168     1.6616950
H           5.3438680     3.5277912     2.8178122
H           5.0168869     4.3347739     1.2745117
H           3.8770861     3.1323419     1.9121444
H           7.7448927     2.1446734     1.8759729
H           7.4089313     3.6295004     0.9617227
30
013_C11H17N2+_1-0-9-8 (-30,) energy =    -538.6681772
C           3.8967628     1.4540002    -0.4374458
C           2.8559215     2.2573653    -0.9175811
C           1.5672910     1.7317798    -1.0410032
C           1.3036201     0.4158899    -0.6631206
C           2.3391347    -0.3823778    -0.1704601
C           3.6310476     0.1290544    -0.0671821
N           7.7604588     1.9755898    -0.3040922
C           7.2115565     2.7598782    -1.4828744
C           5.6959472     2.9710973    -1.2428622
N           5.2471429     1.9401839    -0.3113824
C           5.7106991     2.1797819     1.0768674
C           4.9579218     3.2600373     1.8630848
C           7.2234943     2.5120729     1.0046381
H           3.0389192     3.2922527    -1.1926975
H           0.7687718     2.3608914    -1.4229886
H           0.3000652     0.0122345    -0.7545655
H           2.1453624    -1.4116437     0.1165235
H           4.4420921    -0.5047903     0.2823093
H           7.4200466     1.0115211    -0.4045499
H           8.7852705     1.9636295    -0.3198117
H           7.7717190     3.6959728    -1.5387056
H           7.4169775     2.1635170    -2.3743118
H           5.5102329     3.9980129    -0.8947059
H           5.1688238     2.8512015    -2.1904742
H           5.5954550     1.2268502     1.6038853
H           5.3735441     3.3602594     2.8722682
H           5.0175817     4.2396187     1.3755825
H           3.9040957     2.9874146     1.9597734
H           7.7893318     2.0592014     1.8211593
H           7.4175768     3.5878475     0.9977694
30
013_C11H17N2+_1-0-9-8 (-15,) energy =    -538.6676115
C           3.8944026     1.4716666    -0.4397842
C           2.8984021     2.1980233    -1.1033413
C           1.6089866     1.6722262    -1.2239920
C           1.2951302     0.4311885    -0.6748827
C           2.2864560    -0.2937842    -0.0087618
C           3.5782306     0.2147079     0.0986897
N           7.7748959     2.0124081    -0.3651544
C           7.1905685     2.8514120    -1.4866984
C           5.6777764     3.0283987    -1.2097547
N           5.2532909     1.9388947    -0.3346108
C           5.7469378     2.1167177     1.0566842
C           4.9929231     3.1461868     1.9072107
C           7.2530690     2.4719812     0.9773784
H           3.1027998     3.1829849    -1.5109737
H           0.8485698     2.2484064    -1.7427591
H           0.2911488     0.0290598    -0.7666063
H           2.0599347    -1.2684553     0.4132734
H           4.3488365    -0.3802854     0.5812575
H           7.4504121     1.0486087    -0.5112642
H           8.7993589     2.0192672    -0.3996467
H           7.7358658     3.7977390    -1.5016009
H           7.3856942     2.3088521    -2.4140030
H           5.4786409     4.0298668    -0.8009627
H           5.1472542     2.9556197    -2.1595800
H           5.6593112     1.1401866     1.5417623
H           5.4286375     3.2077108     2.9109762
H           5.0247117     4.1478063     1.4641889
H           3.9464832     2.8497668     2.0130218
H           7.8364380     1.9835480     1.7603645
H           7.4350609     3.5488322     1.0247187
30
013_C11H17N2+_1-0-9-8 (0,) energy =    -538.6660478
C           3.8300073     1.7208522    -0.2466354
C           3.4673550     1.7442133    -1.6062965
C           2.4596682     0.9045646    -2.0895910
C           1.7979936     0.0221135    -1.2404953
C           2.1384713     0.0067400     0.1138176
C           3.1294906     0.8492290     0.6103185
N           7.0034418     1.5995622    -0.7361518
C           6.5760353     2.8636795    -1.4637789
C           5.4845276     3.5442702    -0.5915503
N           4.8236162     2.5971993     0.2882032
C           5.7236298     2.0901975     1.3422214
C           5.7962390     3.0003662     2.5701836
C           7.1447118     1.8438595     0.7540615
H           3.9380734     2.4288809    -2.3037666
H           2.1980679     0.9500634    -3.1427619
H           1.0186733    -0.6301575    -1.6207317
H           1.6137304    -0.6508386     0.8006234
H           3.3203907     0.8581279     1.6786249
H           6.2775562     0.8849303    -0.8847812
H           7.8733757     1.2336727    -1.1362347
H           7.4679683     3.4834209    -1.5832933
H           6.2212444     2.5529947    -2.4475078
H           5.9478019     4.3195285     0.0255051
H           4.7578855     4.0495633    -1.2295647
H           5.3384005     1.1172716     1.6509482
H           6.4818051     2.5888378     3.3199333
H           6.1440439     4.0063252     2.3104112
H           4.8059767     3.0913559     3.0232164
H           7.6308216     0.9720494     1.1967174
H           7.8080546     2.7066830     0.8594721
30
013_C11H17N2+_1-0-9-8 (15,) energy =    -538.6662939
C           3.8129238     1.7047798    -0.2533322
C           3.5401671     1.5937896    -1.6283084
C           2.5051739     0.7690646    -2.0791021
C           1.7452055     0.0247849    -1.1805689
C           2.0128678     0.1311303     0.1865216
C           3.0252273     0.9677298     0.6491375
N           7.0537797     1.6720929    -0.7971401
C           6.6097128     2.9642217    -1.4622660
C           5.4568997     3.5507113    -0.5942815
N           4.8519138     2.5406041     0.2497867
C           5.7495019     2.0242525     1.2944523
C           5.7967017     2.8889034     2.5570023
C           7.1800567     1.8412403     0.7050063
H           4.0986790     2.1687641    -2.3611871
H           2.3036739     0.7100654    -3.1447370
H           0.9472985    -0.6189689    -1.5361909
H           1.4152992    -0.4235136     0.9039653
H           3.1794660     1.0774385     1.7183427
H           6.3413084     0.9541809    -0.9881940
H           7.9335839     1.3431235    -1.2077200
H           7.4839835     3.6182696    -1.5056664
H           6.3081091     2.7059064    -2.4788679
H           5.8596154     4.3460536     0.0412904
H           4.7026900     4.0096241    -1.2353365
H           5.3804347     1.0304805     1.5602621
H           6.4967483     2.4713618     3.2899789
H           6.1126586     3.9139630     2.3334299
H           4.8059775     2.9333214     3.0161024
H           7.6872447     0.9611184     1.1055998
H           7.8190440     2.7152340     0.8584232
30
013_C11H17N2+_1-0-9-8 (30,) energy =    -538.6656347
C           3.8392343     1.5351187    -0.3718059
C           3.2757399     1.6226797    -1.6574036
C           2.0561012     1.0132951    -1.9419017
C           1.3792772     0.2861700    -0.9616399
C           1.9408679     0.1814306     0.3084174
C           3.1539850     0.8034666     0.6110409
N           7.5671821     1.8838654    -0.6429166
C           6.9268668     3.0016727    -1.4578356
C           5.5692076     3.3248880    -0.7925771
N           5.1004201     2.1375273    -0.0998008
C           5.8279147     1.8713179     1.1421556
C           5.4245735     2.7192505     2.3590773
C           7.3414116     2.0752240     0.8425638
H           3.7934641     2.1434989    -2.4575522
H           1.6425780     1.0994872    -2.9425441
H           0.4310767    -0.1908681    -1.1868722
H           1.4295010    -0.3765816     1.0873312
H           3.5405390     0.7194396     1.6200896
H           7.1118422     1.0053468    -0.9167144
H           8.5653947     1.8019289    -0.8625142
H           7.6202567     3.8460520    -1.4555852
H           6.8226605     2.6195636    -2.4758040
H           5.6888362     4.1687072    -0.0989154
H           4.8546086     3.6462350    -1.5482787
H           5.6756443     0.8121777     1.3764624
H           6.0398843     2.4632365     3.2295156
H           5.5487731     3.7897184     2.1614533
H           4.3789372     2.5459873     2.6216843
H           7.9701634     1.3612794     1.3781193
H           7.6824088     3.0869597     1.0765996
30
013_C11H17N2+_1-0-9-8 (45,) energy =    -538.6653281
C           3.8005821     1.5005194    -0.3642305
C           3.2989639     1.4614709    -1.6767832
C           2.0622817     0.8817192    -1.9463734
C           1.3154854     0.2958605    -0.9220639
C           1.8238518     0.3015570     0.3743097
C           3.0527100     0.9027089     0.6592359
N           7.5321822     1.9468160    -0.6929070
C           6.8811751     3.1257205    -1.3990342
C           5.4813280     3.3208528    -0.7628212
N           5.0940311     2.0645119    -0.1334600
C           5.8183706     1.8155589     1.1173187
C           5.4390214     2.6766862     2.3347222
C           7.3343357     2.0171007     0.8057254
H           3.8800430     1.8710891    -2.4990300
H           1.6923109     0.8712251    -2.9674225
H           0.3554896    -0.1631776    -1.1350588
H           1.2602231    -0.1528807     1.1837951
H           3.4060423     0.9007845     1.6833757
H           7.0571917     1.0986964    -1.0254424
H           8.5254368     1.8791265    -0.9380987
H           7.5391738     3.9876097    -1.2666065
H           6.8369792     2.8651997    -2.4590415
H           5.5116912     4.1487151    -0.0412601
H           4.7621311     3.5999808    -1.5315578
H           5.6582405     0.7601464     1.3616057
H           6.0674109     2.4135379     3.1936166
H           5.5777462     3.7449527     2.1359517
H           4.3975431     2.5234308     2.6223192
H           7.9601220     1.2510637     1.2679426
H           7.6971764     3.0004239     1.1158284
30
013_C11H17N2+_1-0-9-8 (60,) energy =    -538.6640454
C           3.7633457     1.4276016    -0.4741512
C           3.3424054     1.1472059    -1.7844414
C           2.1118707     0.5406156    -2.0202025
C           1.2978146     0.1623754    -0.9496160
C           1.7276693     0.4039713     0.3530098
C           2.9488222     1.0396104     0.5956128
N           7.4489957     2.0309349    -0.9486861
C           6.7733360     3.2680088    -1.5073428
C           5.3370622     3.3182667    -0.9096005
N           5.0584488     2.0222082    -0.2963049
C           5.8245443     1.8024713     0.9369630
C           5.5231748     2.7053275     2.1470787
C           7.3361632     1.9631788     0.5569131
H           3.9856449     1.4004843    -2.6242157
H           1.8004398     0.3415118    -3.0413739
H           0.3438631    -0.3223188    -1.1314672
H           1.1084300     0.1100836     1.1953465
H           3.2468506     1.2255835     1.6202586
H           6.9325988     1.2234599    -1.3221388
H           8.4252807     1.9748543    -1.2561946
H           7.3886174     4.1261174    -1.2285789
H           6.7798720     3.1626909    -2.5947534
H           5.2587531     4.1483721    -0.1949871
H           4.6143115     3.5087190    -1.7025635
H           5.6499608     0.7599703     1.2202411
H           6.1797443     2.4345013     2.9822453
H           5.6950506     3.7638051     1.9238488
H           4.4924631     2.5985633     2.4883068
H           7.9465751     1.1257169     0.9010331
H           7.7661058     2.8921976     0.9395337
30
013_C11H17N2+_1-0-9-8 (75,) energy =    -538.6630772
C           3.7937176     1.4469823    -0.4297236
C           3.5053304     0.9215538    -1.6976551
C           2.2685192     0.3350648    -1.9585395
C           1.3113328     0.2432030    -0.9457441
C           1.5949064     0.7564392     0.3194070
C           2.8234075     1.3695898     0.5767411
N           7.4716683     2.1347101    -0.9745932
C           6.7222588     3.3444436    -1.5029918
C           5.3399192     3.3745448    -0.7934128
N           5.0835520     2.0542186    -0.2318560
C           5.9148356     1.7239221     0.9320755
C           5.6156174     2.4174287     2.2733108
C           7.3882526     2.0497183     0.5325447
H           4.2607098     0.9671568    -2.4791267
H           2.0597753    -0.0646355    -2.9464675
H           0.3515560    -0.2243147    -1.1428053
H           0.8529890     0.6975534     1.1102513
H           3.0068519     1.8005871     1.5536683
H           6.9979065     1.3041632    -1.3513791
H           8.4434655     2.1361207    -1.3006979
H           7.3366135     4.2226775    -1.2920404
H           6.6431657     3.2132786    -2.5846392
H           5.3288473     4.1703393    -0.0343228
H           4.5627547     3.6140424    -1.5197859
H           5.8268090     0.6406699     1.0698565
H           6.4222460     2.2156296     2.9887581
H           5.5343037     3.5041267     2.1601908
H           4.6912562     2.0461845     2.7176693
H           8.0893738     1.2845986     0.8719059
H           7.7174340     3.0207258     0.9117974
30
013_C11H17N2+_1-0-9-8 (90,) energy =    -538.6637777
C           3.8062118     1.4472280    -0.4462884
C           3.5538484     0.7265317    -1.6202313
C           2.2999735     0.1599549    -1.8476402
C           1.2859011     0.3080264    -0.8996013
C           1.5266761     1.0362295     0.2662680
C           2.7769819     1.6158834     0.4899522
N           7.5042278     2.2757773    -1.0028862
C           6.6903685     3.4604968    -1.4924348
C           5.3159073     3.4046236    -0.7731203
N           5.1089803     2.0462197    -0.2850490
C           5.9606882     1.6663652     0.8513531
C           5.5991565     2.1995961     2.2475104
C           7.4052290     2.1243222     0.4985735
H           4.3507590     0.6030250    -2.3495076
H           2.1181357    -0.3999421    -2.7601669
H           0.3106096    -0.1370139    -1.0717217
H           0.7367753     1.1670116     0.9999294
H           2.9386811     2.2133951     1.3805919
H           7.0842616     1.4359803    -1.4200998
H           8.4777442     2.3467813    -1.3155729
H           7.2612745     4.3630179    -1.2626641
H           6.6074017     3.3534226    -2.5763214
H           5.2828502     4.1622170     0.0246548
H           4.5260271     3.6533513    -1.4828015
H           5.9475165     0.5706621     0.8857524
H           6.3960512     1.9609831     2.9624773
H           5.4649171     3.2872510     2.2452250
H           4.6829475     1.7351549     2.6159900
H           8.1592402     1.4045443     0.8231487
H           7.6481113     3.1025213     0.9220344
30
013_C11H17N2+_1-0-9-8 (105,) energy =    -538.6652031
C           3.7999504     1.4269473    -0.4596600
C           3.5700193     0.5419996    -1.5186370
C           2.3069562    -0.0202279    -1.7060128
C           1.2611496     0.3102053    -0.8423557
C           1.4796762     1.2089064     0.2033619
C           2.7426380     1.7719259     0.3936703
N           7.5099698     2.3750611    -0.9857979
C           6.6586246     3.5572294    -1.4142387
C           5.2792715     3.4108965    -0.7196388
N           5.1144194     2.0132226    -0.3314204
C           5.9654116     1.5899082     0.7943810
C           5.5444544     2.0057883     2.2118477
C           7.3940669     2.1255028     0.5017176
H           4.3886728     0.2924414    -2.1885815
H           2.1399107    -0.7106824    -2.5273326
H           0.2773176    -0.1255339    -0.9879179
H           0.6654890     1.4785713     0.8694439
H           2.8981650     2.4884243     1.1944662
H           7.1272835     1.5489974    -1.4620150
H           8.4843849     2.5017618    -1.2771881
H           7.1933238     4.4643027    -1.1235146
H           6.5915603     3.5122822    -2.5034709
H           5.2114649     4.1136803     0.1248566
H           4.4907707     3.6793365    -1.4238537
H           5.9946432     0.4945527     0.7528895
H           6.3079741     1.7039548     2.9388519
H           5.4100513     3.0902945     2.2963989
H           4.6105646     1.5153009     2.4936336
H           8.1714134     1.4170021     0.7943983
H           7.5901671     3.0837688     0.9900469
30
013_C11H17N2+_1-0-9-8 (120,) energy =    -538.6665581
C           3.8126515     1.4419615    -0.4880298
C           3.6059823     0.4011622    -1.3992925
C           2.3398106    -0.1671744    -1.5412977
C           1.2683441     0.3171116    -0.7884667
C           1.4660916     1.3694990     0.1073504
C           2.7344977     1.9314127     0.2613909
N           7.5242583     2.4496969    -1.0142334