33
024_C12H19N2+_10-11-26-27 (-165,) energy =    -577.9805445
C           0.3871446     0.6950880     0.9609173
H           0.7975606     0.6892000     1.9691302
C          -0.8543877     1.2899375     0.7254849
H          -1.3977006     1.7485156     1.5466473
C          -1.3914822     1.2960757    -0.5619535
H          -2.3560304     1.7590838    -0.7483988
C          -0.6833040     0.7049317    -1.6115485
H          -1.0970833     0.7067944    -2.6159649
C           0.5540533     0.1071494    -1.3747143
H           1.1040067    -0.3470443    -2.1941709
C           1.1002278     0.0948198    -0.0832149
C           2.4219621    -0.6113552     0.2003680
C           2.2252127    -2.1361499     0.1719161
H           1.3722348    -2.3925492     0.8052188
H           3.0903472    -2.6875324     0.5576025
H           2.0056736    -2.4831533    -0.8431970
H           2.7232362    -0.3410725     1.2301285
N           5.9895636     0.8464900     0.1863563
H           6.4528950     1.1023712    -0.6951772
H           6.6500998     1.0791136     0.9359062
C           4.7161748     1.6745051     0.3258849
H           5.0061477     2.7264690     0.2610767
H           4.3287371     1.4675708     1.3260892
C           3.7343933     1.2556335    -0.7790636
H           4.1507398     1.5451580    -1.7557213
H           2.8078061     1.8195994    -0.6487103
N           3.4448449    -0.1706123    -0.7877893
C           4.6694678    -0.9390082    -0.9244003
H           5.1185571    -0.7073583    -1.9024786
H           4.4614159    -2.0092898    -0.9284474
C           5.7102013    -0.6512535     0.1717893
H           6.6639419    -1.1568011    -0.0019050
H           5.3429579    -0.9028186     1.1697344
33
024_C12H19N2+_10-11-26-27 (-150,) energy =    -577.9794659
C           0.2316889     0.6947098     0.9175506
H           0.5829236     0.7220642     1.9475729
C          -1.0254970     1.2155495     0.6039857
H          -1.6409974     1.6500776     1.3863840
C          -1.4849387     1.1809180    -0.7127421
H          -2.4612984     1.5870615    -0.9603163
C          -0.6828083     0.6248425    -1.7126891
H          -1.0354700     0.5974449    -2.7398282
C           0.5713525     0.1029324    -1.3978139
H           1.1966472    -0.3199122    -2.1791392
C           1.0382591     0.1289332    -0.0767930
C           2.3797089    -0.4970791     0.2958940
C           2.2503041    -2.0271207     0.3492387
H           1.4142883    -2.2832324     1.0048117
H           3.1436750    -2.5176562     0.7540333
H           2.0311819    -2.4422058    -0.6403681
H           2.6313169    -0.1593900     1.3179046
N           6.0939468     0.7460294     0.0796311
H           6.4647409     1.0542709    -0.8287806
H           6.8494119     0.8842715     0.7594991
C           4.8950785     1.6196881     0.4368429
H           5.2403919     2.6569774     0.4338999
H           4.6048350     1.3357594     1.4512337
C           3.7785406     1.3507060    -0.5834180
H           4.1031217     1.7122636    -1.5718039
H           2.8999433     1.9394068    -0.3060783
N           3.4207750    -0.0514191    -0.6663515
C           4.5582104    -0.8804525    -1.0002026
H           4.9107219    -0.6085144    -2.0081089
H           4.2793299    -1.9332022    -1.0453714
C           5.7356453    -0.7323311    -0.0187383
H           6.6359277    -1.2604722    -0.3450018
H           5.4724670    -1.0503232     0.9930292
33
024_C12H19N2+_10-11-26-27 (-135,) energy =    -577.9775675
C           0.0977117     0.6651222     0.8768815
H           0.3805701     0.6966647     1.9276550
C          -1.1561809     1.1389273     0.4857073
H          -1.8380524     1.5410445     1.2294700
C          -1.5270189     1.1005417    -0.8586365
H          -2.5004844     1.4708309    -1.1664690
C          -0.6393178     0.5881556    -1.8082006
H          -0.9221806     0.5585903    -2.8566958
C           0.6119802     0.1144581    -1.4152144
H           1.3033407    -0.2729298    -2.1588883
C           0.9901325     0.1433923    -0.0668261
C           2.3300615    -0.4289278     0.3913980
C           2.2456191    -1.9591801     0.4903846
H           1.4178559    -2.2189015     1.1550483
H           3.1558550    -2.4071823     0.9076460
H           2.0337434    -2.4148858    -0.4828248
H           2.5210589    -0.0543847     1.4116569
N           6.1676760     0.6952380    -0.0587433
H           6.4339585     1.0509343    -0.9864923
H           7.0058971     0.7690075     0.5276146
C           5.0560610     1.5808787     0.4978406
H           5.4411818     2.6041678     0.5151582
H           4.8766043     1.2384275     1.5198644
C           3.8170249     1.4091244    -0.3930968
H           4.0347693     1.8310275    -1.3886953
H           2.9964127     2.0007830     0.0215268
N           3.4192000     0.0263631    -0.5052979
C           4.4568677    -0.8224834    -1.0320622
H           4.6965910    -0.5162125    -2.0648448
H           4.1318865    -1.8614123    -1.0855717
C           5.7524476    -0.7654423    -0.2006494
H           6.5897837    -1.2912447    -0.6683141
H           5.6034854    -1.1398746     0.8148892
33
024_C12H19N2+_10-11-26-27 (-120,) energy =    -577.9780273
C           0.8085504     0.2361141     0.3299368
H           1.2361926     1.2159668     0.5340781
C          -0.3080503    -0.1874903     1.0490986
H          -0.7396145     0.4585316     1.8084868
C          -0.8766629    -1.4373797     0.7878263
H          -1.7486173    -1.7661983     1.3454973
C          -0.3217609    -2.2582772    -0.1936122
H          -0.7596846    -3.2296534    -0.4044023
C           0.8005450    -1.8329200    -0.9090931
H           1.2261876    -2.4770237    -1.6759419
C           1.3761322    -0.5822568    -0.6586670
C           2.5843022    -0.1195974    -1.4676168
C           2.2318986     1.0545704    -2.3871509
H           1.3877995     0.7568821    -3.0148744
H           3.0583254     1.3176799    -3.0570255
H           1.9251364     1.9446616    -1.8274852
H           2.8625939    -0.9587368    -2.1214957
N           6.2090832     0.3708410     0.8356053
H           5.9021082     0.8699530     1.6811340
H           7.2169129     0.2125573     0.9421760
C           5.4694442    -0.9583391     0.7613949
H           5.6780931    -1.4937436     1.6914179
H           5.8963101    -1.4978174    -0.0865322
C           3.9806929    -0.6799042     0.5590545
H           3.5666137    -0.2352384     1.4859700
H           3.4761619    -1.6407005     0.4315311
N           3.7751624     0.1481855    -0.6060590
C           4.4248710     1.4319358    -0.5202078
H           4.0672822     2.0506650     0.3310214
H           4.2559462     2.0186103    -1.4232599
C           5.9375889     1.2532306    -0.3738238
H           6.4603550     2.1986598    -0.2060929
H           6.3637662     0.7339058    -1.2345025
33
024_C12H19N2+_10-11-26-27 (-105,) energy =    -577.9806267
C           0.8474014     0.2985566     0.2871937
H           1.2868914     1.2846561     0.4250776
C          -0.2547039    -0.0708615     1.0574344
H          -0.6579098     0.6218562     1.7908301
C          -0.8462737    -1.3244510     0.8790370
H          -1.7080442    -1.6104287     1.4748426
C          -0.3284336    -2.2039311    -0.0714034
H          -0.7851116    -3.1781712    -0.2201503
C           0.7800825    -1.8330805    -0.8364741
H           1.1751088    -2.5239014    -1.5787674
C           1.3798547    -0.5795859    -0.6697140
C           2.5823269    -0.1871609    -1.5242467
C           2.2675161     0.9689762    -2.4780459
H           1.4363742     0.6677957    -3.1213599
H           3.1193377     1.2037197    -3.1265545
H           1.9549592     1.8764333    -1.9509232
H           2.8153557    -1.0581103    -2.1517442
N           6.1397004     0.3647318     0.8893334
H           5.7424171     0.7450097     1.7584921
H           7.1523187     0.2962881     1.0384242
C           5.5450608    -1.0152225     0.6464591
H           5.7590798    -1.6190109     1.5320481
H           6.0661983    -1.4236185    -0.2217002
C           4.0490808    -0.8649871     0.3823833
H           3.5395676    -0.5530304     1.3151602
H           3.6552020    -1.8551000     0.1364403
N           3.8237160     0.0430212    -0.7223262
C           4.3234442     1.3746249    -0.4635363
H           3.8581623     1.8636155     0.4192875
H           4.1418436     2.0291917    -1.3168026
C           5.8355837     1.3299531    -0.2463656
H           6.2490081     2.3016716     0.0357694
H           6.3521203     0.9409920    -1.1260591
33
024_C12H19N2+_10-11-26-27 (-90,) energy =    -577.9831500
C           0.8410833     0.4612100     0.1851310
H           1.2267951     1.4780658     0.2062697
C          -0.2442746     0.1313519     0.9967855
H          -0.6791668     0.8840300     1.6484318
C          -0.7806710    -1.1582806     0.9617580
H          -1.6306756    -1.4127391     1.5880028
C          -0.2258356    -2.1136396     0.1104610
H          -0.6425139    -3.1158976     0.0687744
C           0.8652150    -1.7815167    -0.6956525
H           1.2850398    -2.5313555    -1.3635226
C           1.4136882    -0.4931639    -0.6711703
C           2.6122934    -0.1592644    -1.5570058
C           2.3383933     0.9809700    -2.5410087
H           1.5277377     0.6785091    -3.2094727
H           3.2207443     1.1938607    -3.1548099
H           2.0155116     1.9031874    -2.0469917
H           2.8145513    -1.0541221    -2.1600548
N           6.0842389     0.3819097     0.9757180
H           5.6174490     0.5984283     1.8660935
H           7.0924516     0.3962800     1.1648404
C           5.6495456    -1.0040469     0.5225102
H           5.8933397    -1.7000353     1.3290299
H           6.2424198    -1.2349784    -0.3647518
C           4.1579777    -0.9698360     0.2043208
H           3.5814955    -0.8295923     1.1391942
H           3.8806849    -1.9540480    -0.1848880
N           3.8844707     0.0456638    -0.7955387
C           4.2229427     1.3758592    -0.3269115
H           3.6680965     1.6825254     0.5841132
H           4.0053513     2.1177680    -1.0971764
C           5.7201882     1.4554339    -0.0386641
H           6.0160834     2.4175042     0.3870030
H           6.3081197     1.2426186    -0.9336864
33
024_C12H19N2+_10-11-26-27 (-75,) energy =    -577.9848694
C           0.7985425     0.5838182     0.0432955
H           1.1220512     1.6145775    -0.0778193
C          -0.2703583     0.3099902     0.8974054
H          -0.7490262     1.1210196     1.4390437
C          -0.7353009    -0.9987023     1.0432042
H          -1.5729632    -1.2096744     1.7014288
C          -0.1277087    -2.0302982     0.3270141
H          -0.4919341    -3.0492812     0.4217126
C           0.9447202    -1.7528784    -0.5228535
H           1.4008045    -2.5626166    -1.0894260
C           1.4265509    -0.4456415    -0.6765563
C           2.6199869    -0.1811839    -1.5932559
C           2.3846991     0.9360035    -2.6139397
H           1.5689379     0.6428066    -3.2806822
H           3.2824499     1.0987450    -3.2194556
H           2.0912797     1.8860629    -2.1560946
H           2.7933150    -1.1001701    -2.1670328
N           6.0292790     0.3066141     1.0272121
H           5.5280299     0.3419908     1.9243193
H           7.0275265     0.3931617     1.2475922
C           5.7469724    -1.0323225     0.3631666
H           6.0453579    -1.8134089     1.0666959
H           6.3763977    -1.0700602    -0.5282054
C           4.2663846    -1.0993275     0.0035032
H           3.6603236    -1.1486861     0.9286939
H           4.1009142    -2.0413575    -0.5284963
N           3.9107318     0.0152640    -0.8600077
C           4.0994143     1.2869539    -0.1801743
H           3.4921686     1.3872582     0.7416378
H           3.8185703     2.1108388    -0.8398695
C           5.5729456     1.4751259     0.1671641
H           5.7572933     2.3892106     0.7368651
H           6.1975148     1.4579859    -0.7282353
33
024_C12H19N2+_10-11-26-27 (-60,) energy =    -577.9852554
C           0.7442665     0.6793230    -0.1090437
H           1.0100957     1.6995671    -0.3724810
C          -0.3214916     0.4674793     0.7670214
H          -0.8552850     1.3185813     1.1803926
C          -0.7119509    -0.8311715     1.0986394
H          -1.5471729    -0.9944078     1.7733288
C          -0.0338236    -1.9173275     0.5442861
H          -0.3412789    -2.9319547     0.7809780
C           1.0328524    -1.7011649    -0.3296848
H           1.5384046    -2.5559588    -0.7751039
C           1.4429428    -0.4026538    -0.6674209
C           2.6367851    -0.2114492    -1.6023890
C           2.4344623     0.8698287    -2.6689247
H           1.5630291     0.6195014    -3.2808578
H           3.3131190     0.9274737    -3.3182603
H           2.2524507     1.8642151    -2.2483147
H           2.7889795    -1.1569274    -2.1358419
N           6.0151188     0.2374894     1.0655896
H           5.5162034     0.0882184     1.9521201
H           6.9993590     0.3961199     1.3078916
C           5.8737485    -1.0111637     0.2094917
H           6.2533736    -1.8523848     0.7944687
H           6.5019247    -0.8519126    -0.6692788
C           4.4085760    -1.1796601    -0.1788351
H           3.8101946    -1.4209747     0.7215110
H           4.3472102    -2.0491943    -0.8407305
N           3.9369067     0.0038304    -0.8853096
C           3.9882909     1.1689606    -0.0120234
H           3.3718111     1.0582499     0.9007737
H           3.6148516     2.0488481    -0.5418159
C           5.4323911     1.4633012     0.3791831
H           5.5158636     2.2979606     1.0794524
H           6.0541313     1.6469592    -0.4993757
33
024_C12H19N2+_10-11-26-27 (-45,) energy =    -577.9840850
C           0.6419288     0.7291863    -0.2913785
H           0.8490082     1.7107835    -0.7084537
C          -0.4309431     0.5847077     0.5901422
H          -1.0304234     1.4516254     0.8531347
C          -0.7432281    -0.6682256     1.1199825
H          -1.5837949    -0.7801791     1.7984899
C           0.0194437    -1.7792603     0.7570044
H          -0.2281476    -2.7626490     1.1465349
C           1.0908762    -1.6307788    -0.1245414
H           1.6575613    -2.5099017    -0.4255314
C           1.4246371    -0.3756696    -0.6579640
C           2.6274109    -0.2573511    -1.5926078
C           2.4657559     0.7899355    -2.7000612
H           1.5435157     0.6091423    -3.2602671
H           3.3129500     0.7370196    -3.3893987
H           2.4171740     1.8123133    -2.3094842
H           2.7625258    -1.2283357    -2.0811464
N           6.0356718     0.1725206     1.0499916
H           5.5973979    -0.1656192     1.9163177
H           7.0045637     0.4119595     1.2877399
C           6.0041196    -0.9437647     0.0180087
H           6.4995103    -1.8114126     0.4605081
H           6.5751759    -0.5829705    -0.8398452
C           4.5542106    -1.2250147    -0.3640202
H           4.0207904    -1.6601992     0.5047428
H           4.5703083    -1.9906286    -1.1457296
N           3.9290409    -0.0125224    -0.8773189
C           3.8722784     0.9976058     0.1723914
H           3.3112194     0.6665433     1.0662876
H           3.3684405     1.8939336    -0.1989087
C           5.2846095     1.4072819     0.5743931
H           5.2959902     2.1291684     1.3946405
H           5.8449464     1.7979594    -0.2773759
33
024_C12H19N2+_10-11-26-27 (-30,) energy =    -577.9820523
C           0.5654993     0.7665285    -0.4408598
H           0.7497506     1.6925900    -0.9777167
C          -0.5281358     0.6937765     0.4245771
H          -1.1682718     1.5616816     0.5548020
C          -0.8069128    -0.4897349     1.1089170
H          -1.6625471    -0.5469655     1.7752906
C           0.0102757    -1.6055960     0.9175370
H          -0.2101280    -2.5379187     1.4297069
C           1.1004969    -1.5298061     0.0507095
H           1.7117364    -2.4152083    -0.1147016
C           1.4001222    -0.3427136    -0.6370584
C           2.6242505    -0.3004250    -1.5484168
C           2.5086632     0.6883321    -2.7141159
H           1.5907476     0.5113872    -3.2832868
H           3.3647334     0.5743381    -3.3851743
H           2.4975615     1.7279024    -2.3687988
H           2.7467492    -1.3022538    -1.9734748
N           6.0964659     0.1379669     1.0238256
H           5.7573698    -0.3847958     1.8415794
H           7.0412412     0.4627206     1.2572950
C           6.1397899    -0.8003166    -0.1719183
H           6.7633369    -1.6537123     0.1056500
H           6.6086643    -0.2404336    -0.9835431
C           4.7140037    -1.2050005    -0.5355570
H           4.2958358    -1.8372000     0.2746661
H           4.7766040    -1.8313247    -1.4304353
N           3.9159651    -0.0202702    -0.8165278
C           3.7970494     0.7989685     0.3820346
H           3.3366329     0.2632010     1.2337791
H           3.1620364     1.6659280     0.1821415
C           5.1704592     1.3225531     0.7868821
H           5.1440030     1.9017244     1.7131753
H           5.6246221     1.9116907    -0.0122864
33
024_C12H19N2+_10-11-26-27 (-15,) energy =    -577.9806275
C           0.5546869     0.7995166    -0.5365042
H           0.7853015     1.6806317    -1.1281655
C          -0.5735595     0.8130207     0.2867950
H          -1.1962477     1.7020174     0.3301298
C          -0.9077954    -0.3124525     1.0406561
H          -1.7898009    -0.3033560     1.6742378
C          -0.1105783    -1.4563413     0.9635775
H          -0.3726488    -2.3436475     1.5328364
C           1.0145876    -1.4668434     0.1395668
H           1.6153600    -2.3717821     0.0678004
C           1.3677341    -0.3397688    -0.6188894
C           2.6204872    -0.3918140    -1.4865266
C           2.5637716     0.4888058    -2.7393868
H           1.6738185     0.2620299    -3.3351220
H           3.4484908     0.3157000    -3.3604034
H           2.5467909     1.5530281    -2.4833054
H           2.7240453    -1.4332334    -1.8141316
N           6.1752926     0.1298673     0.9618086
H           5.9699249    -0.5478753     1.7072582
H           7.0861228     0.5441538     1.1882247
C           6.2461651    -0.6101320    -0.3647088
H           6.9946453    -1.3992001    -0.2577837
H           6.5737887     0.1211848    -1.1061873
C           4.8598212    -1.1526761    -0.7019509
H           4.5997448    -1.9586613     0.0163891
H           4.9292754    -1.6174387    -1.6900062
N           3.8913208    -0.0719719    -0.7318141
C           3.7642170     0.5542384     0.5733014
H           3.4455294    -0.1462542     1.3706702
H           3.0105055     1.3441171     0.5404572
C           5.0897055     1.1977993     0.9653223
H           5.0671585     1.6301271     1.9687492
H           5.3986632     1.9505514     0.2373766
33
024_C12H19N2+_10-11-26-27 (0,) energy =    -577.9809540
C           0.5936855     0.8600210    -0.5272604
H           0.9096233     1.7229245    -1.1066568
C          -0.5555986     0.9543668     0.2599803
H          -1.1129144     1.8863456     0.2878378
C          -0.9948885    -0.1461981     0.9976720
H          -1.8938320    -0.0741237     1.6027792
C          -0.2805343    -1.3442668     0.9421326
H          -0.6233338    -2.2108379     1.5002028
C           0.8683124    -1.4351600     0.1558312
H           1.4078745    -2.3787700     0.1037044
C           1.3243424    -0.3361914    -0.5870284
C           2.5904647    -0.4744718    -1.4208992
C           2.5565995     0.2774678    -2.7561476
H           1.6894388    -0.0291912    -3.3494124
H           3.4592630     0.0640791    -3.3394724
H           2.5121856     1.3600231    -2.6049550
H           2.6845373    -1.5469099    -1.6428777
N           6.2083211     0.2114132     0.8833044
H           6.1415108    -0.5723480     1.5455570
H           7.0767239     0.7089909     1.1086729
C           6.2710046    -0.3472807    -0.5295152
H           7.1153285    -1.0400893    -0.5684196
H           6.4530665     0.5043443    -1.1879087
C           4.9392268    -1.0190926    -0.8528012
H           4.8330236    -1.9368454    -0.2363177
H           4.9867872    -1.3429323    -1.8968441
N           3.8452437    -0.0844783    -0.6767458
C           3.7396159     0.3654964     0.6993588
H           3.5711335    -0.4567467     1.4249736
H           2.8966290     1.0501894     0.8086628
C           5.0048539     1.1223455     1.0880664
H           5.0071055     1.4267144     2.1376706
H           5.1646076     1.9890582     0.4436526
33
024_C12H19N2+_10-11-26-27 (15,) energy =    -577.9822817
C           0.7015445     0.8941945    -0.4392241
H           1.1234807     1.7438069    -0.9695192
C          -0.4653007     1.0670178     0.3060770
H          -0.9357459     2.0451386     0.3505143
C          -1.0344748    -0.0152329     0.9812057
H          -1.9478374     0.1185137     1.5533390
C          -0.4302315    -1.2706608     0.9073534
H          -0.8720886    -2.1208636     1.4189189
C           0.7401474    -1.4397648     0.1655012
H           1.1971356    -2.4250595     0.1028440
C           1.3226271    -0.3628340    -0.5161448
C           2.5953640    -0.5810557    -1.3194515
C           2.5446927     0.0395552    -2.7214271
H           1.6848163    -0.3497001    -3.2748253
H           3.4462307    -0.1994787    -3.2967535
H           2.4631689     1.1287914    -2.6702356
H           2.6963885    -1.6718478    -1.4352046
N           6.2412344     0.2767419     0.8749903
H           6.2891008    -0.5710447     1.4546580
H           7.0661168     0.8385256     1.1127071
C           6.2827677    -0.1298994    -0.5894188
H           7.1859295    -0.7274023    -0.7360151
H           6.3483000     0.7965432    -1.1633088
C           5.0067163    -0.8962921    -0.9232734
H           5.0141487    -1.8723016    -0.3934888
H           5.0338087    -1.1189693    -1.9935300
N           3.8362963    -0.0960274    -0.6129778
C           3.7611721     0.1941249     0.8092484
H           3.7139908    -0.7138599     1.4461173
H           2.8639137     0.7749690     1.0280317
C           4.9652865     1.0317064     1.2240014
H           4.9908593     1.2270786     2.2988603
H           5.0052118     1.9712225     0.6692561
33
024_C12H19N2+_10-11-26-27 (30,) energy =    -577.9838442
C           0.8152916     0.9152260    -0.3849325
H           1.3390122     1.7368929    -0.8671379
C          -0.3655193     1.1697357     0.3122099
H          -0.7515005     2.1836657     0.3676850
C          -1.0576283     0.1226943     0.9266320
H          -1.9816930     0.3203956     1.4618837
C          -0.5604660    -1.1776883     0.8423184
H          -1.0962349    -1.9984570     1.3102946
C           0.6267005    -1.4292804     0.1508401
H           1.0037911    -2.4473627     0.0837663
C           1.3279411    -0.3894800    -0.4714439
C           2.6033858    -0.6888565    -1.2437884
C           2.5148592    -0.2036306    -2.6987330
H           1.6389384    -0.6487059    -3.1794324
H           3.3910253    -0.4914830    -3.2897394
H           2.4181478     0.8847080    -2.7441848
H           2.7139357    -1.7866643    -1.2545536
N           6.2585629     0.3375732     0.8538030
H           6.4161748    -0.5551650     1.3385375
H           7.0358277     0.9531278     1.1176017
C           6.2660013     0.0873690    -0.6454293
H           7.2118093    -0.4023971    -0.8896904
H           6.2187550     1.0690173    -1.1209339
C           5.0529189    -0.7613385    -1.0108592
H           5.1684431    -1.7768591    -0.5767388
H           5.0613259    -0.8815738    -2.0965109
N           3.8247365    -0.1083035    -0.5865385
C           3.7958351     0.0185670     0.8643269
H           3.8642136    -0.9558546     1.3918916
H           2.8608641     0.4827047     1.1809536
C           4.9336853     0.9201426     1.3265835
H           4.9872332     1.0026094     2.4148376
H           4.8591895     1.9127760     0.8779540
33
024_C12H19N2+_10-11-26-27 (45,) energy =    -577.9852974
C           0.9227807     0.9302689    -0.3524435
H           1.5383460     1.7106519    -0.7930745
C          -0.2703408     1.2672986     0.2856989
H          -0.5795637     2.3074903     0.3369130
C          -1.0721335     0.2700896     0.8479670
H          -2.0047056     0.5323892     1.3388838
C          -0.6714785    -1.0637414     0.7722394
H          -1.2902536    -1.8452149     1.2036669
C           0.5280589    -1.3991290     0.1398290
H           0.8317298    -2.4420565     0.0820855
C           1.3360576    -0.4091617    -0.4309562
C           2.6135914    -0.7919755    -1.1636923
C           2.5032905    -0.4531096    -2.6595495
H           1.5774369    -0.8804926    -3.0538124
H           3.3239779    -0.8674605    -3.2542623
H           2.4713601     0.6299444    -2.8128435
H           2.7313742    -1.8862141    -1.0673855
N           6.2590800     0.4061250     0.8434990
H           6.5315985    -0.5161256     1.2067113
H           6.9827624     1.0654174     1.1506577
C           6.2117796     0.3392394    -0.6739289
H           7.1887505    -0.0109912    -1.0157004
H           6.0380849     1.3598729    -1.0205643
C           5.0775459    -0.5871634    -1.0994354
H           5.3190409    -1.6293685    -0.8020723
H           5.0493785    -0.5688188    -2.1902550
N           3.8090398    -0.1270209    -0.5523054
C           3.8489540    -0.1752468     0.9050495
H           4.0455818    -1.1948317     1.2983658
H           2.8870827     0.1407796     1.3118610
C           4.9080828     0.7819028     1.4347664
H           5.0063614     0.7382718     2.5220498
H           4.7092055     1.8074149     1.1170530
33
024_C12H19N2+_10-11-26-27 (60,) energy =    -577.9861822
C           0.9859238     0.9465372    -0.3103628
H           1.6699181     1.6831812    -0.7235643
C          -0.2122876     1.3584828     0.2718975
H          -0.4605976     2.4155967     0.3063337
C          -1.0959288     0.4150441     0.8028522
H          -2.0306671     0.7370402     1.2523420
C          -0.7730695    -0.9411186     0.7519219
H          -1.4540807    -1.6807545     1.1628075
C           0.4299821    -1.3521153     0.1734705
H           0.6748263    -2.4115080     0.1351353
C           1.3184435    -0.4152767    -0.3668159
C           2.5973268    -0.8791471    -1.0527257
C           2.4883636    -0.6876035    -2.5743418
H           1.5406729    -1.1121209    -2.9152879
H           3.2849561    -1.1973135    -3.1263957
H           2.4927962     0.3754153    -2.8384021
H           2.7157224    -1.9601023    -0.8555038
N           6.2456335     0.4671387     0.8310025
H           6.6388612    -0.4573051     1.0493174
H           6.9181906     1.1582465     1.1815433
C           6.0947385     0.5914911    -0.6762535
H           7.0759063     0.4039975    -1.1189072
H           5.7889585     1.6219145    -0.8686246
C           5.0369271    -0.3936303    -1.1631837
H           5.4068254    -1.4318753    -1.0295701
H           4.9302922    -0.2297667    -2.2366725
N           3.7705702    -0.1488364    -0.4859322
C           3.9209353    -0.3785615     0.9471188
H           4.2437792    -1.4145457     1.1807794
H           2.9587640    -0.2256313     1.4414260
C           4.9104135     0.6103089     1.5464005
H           5.0903037     0.4339764     2.6095214
H           4.5855605     1.6406557     1.3879494
33
024_C12H19N2+_10-11-26-27 (75,) energy =    -577.9851095
C           1.0311651     0.9645075    -0.3461879
H           1.7660316     1.6589194    -0.7439937
C          -0.1754517     1.4427009     0.1635770
H          -0.3802800     2.5096541     0.1533293
C          -1.1210760     0.5543786     0.6825158
H          -2.0610835     0.9281217     1.0778320
C          -0.8520946    -0.8143168     0.6915413
H          -1.5801217    -1.5116405     1.0958827
C           0.3579833    -1.2914197     0.1828876
H           0.5597871    -2.3607171     0.1908370
C           1.3081911    -0.4096851    -0.3457404
C           2.5958087    -0.9513760    -0.9571160
C           2.5115511    -0.8966718    -2.4907066
H           1.5872558    -1.3883074    -2.8048420
H           3.3402563    -1.4189554    -2.9807543
H           2.4713670     0.1369851    -2.8518562
H           2.7033959    -2.0114001    -0.6691969
N           6.2599875     0.5106204     0.8033750
H           6.7580015    -0.3863308     0.8671786
H           6.8878796     1.2201521     1.1971840
C           5.9760611     0.8092926    -0.6603678
H           6.9323177     0.7859125    -1.1884059
H           5.5562434     1.8167670    -0.6906404
C           4.9836586    -0.2139325    -1.2043639
H           5.4633286    -1.2146897    -1.2297437
H           4.7802989     0.0685094    -2.2384233
N           3.7569523    -0.1792820    -0.4176768
C           4.0437253    -0.5790284     0.9552592
H           4.4754075    -1.5989938     1.0192365
H           3.1107800    -0.5891865     1.5267044
C           4.9808280     0.4182509     1.6221260
H           5.2631798     0.1212954     2.6349547
H           4.5481851     1.4205958     1.6326054
33
024_C12H19N2+_10-11-26-27 (90,) energy =    -577.9819882
C           1.0608477     0.9837746    -0.3896221
H           1.8410087     1.6382574    -0.7687739
C          -0.1528790     1.5228777     0.0348478
H          -0.3182956     2.5949768    -0.0262654
C          -1.1552324     0.6887079     0.5368329
H          -2.0999099     1.1103886     0.8674712
C          -0.9359615    -0.6866585     0.6136551
H          -1.7077328    -1.3420244     1.0069283
C           0.2808522    -1.2241306     0.1883575
H           0.4444336    -2.2984745     0.2485503
C           1.2880882    -0.3969890    -0.3222494
C           2.5836542    -1.0102290    -0.8426917
C           2.5405111    -1.0880369    -2.3776913
H           1.6535940    -1.6581039    -2.6666303
H           3.4126245    -1.5984891    -2.8008935
H           2.4452464    -0.0957603    -2.8319745
H           2.6611754    -2.0440665    -0.4719194