33
024_C12H19N2+_0-10-11-26 (-165,) energy =    -577.9791605
C           0.1331491    -0.3716387    -1.2663521
H           0.1549944    -0.1632883    -2.3339788
C          -1.0623429    -0.7808877    -0.6802113
H          -1.9562712    -0.8788421    -1.2894079
C          -1.1111795    -1.0670585     0.6863918
H          -2.0414709    -1.3870175     1.1460448
C           0.0443658    -0.9391831     1.4536840
H           0.0181205    -1.1574253     2.5176848
C           1.2415216    -0.5262019     0.8611023
H           2.1210931    -0.4279107     1.4885565
C           1.3070398    -0.2408604    -0.5073299
C           2.5697574     0.2628532    -1.2149052
C           2.4120412     1.7293698    -1.6524519
H           1.5825275     1.8138145    -2.3585797
H           3.3199375     2.0877489    -2.1498916
H           2.1740326     2.3877449    -0.8102363
H           2.6855218    -0.3270531    -2.1343735
N           6.3079845    -0.4220803     0.8318660
H           5.9969785    -0.7575817     1.7529060
H           7.3336522    -0.4300948     0.8527050
C           5.7955639    -1.3805966    -0.2343660
H           6.1603938    -2.3774841     0.0258197
H           6.2376047    -1.0526229    -1.1772188
C           4.2705555    -1.2980611    -0.2753044
H           3.8555664    -1.7385503     0.6512242
H           3.9263351    -1.9297436    -1.0997122
N           3.8581084     0.0726885    -0.5059444
C           4.2697468     0.9635368     0.5608021
H           3.8767102     0.6885241     1.5589019
H           3.9291478     1.9809887     0.3606922
C           5.7958880     0.9982720     0.6337155
H           6.1655055     1.5933506     1.4727260
H           6.2317488     1.3535202    -0.3020075
33
024_C12H19N2+_0-10-11-26 (-150,) energy =    -577.9805662
C           0.2244994    -0.5547593    -1.3215333
H           0.3082305    -0.4845858    -2.4044175
C          -0.9636414    -1.0147561    -0.7560103
H          -1.7939633    -1.2945675    -1.3979168
C          -1.0830900    -1.1197041     0.6312119
H          -2.0058512    -1.4813021     1.0749834
C          -0.0095028    -0.7544093     1.4424760
H          -0.0946185    -0.8262062     2.5232203
C           1.1766559    -0.2864362     0.8715782
H           1.9874854     0.0111038     1.5293899
C           1.3152764    -0.1890855    -0.5190645
C           2.5572614     0.3804300    -1.2084483
C           2.3809780     1.8752273    -1.5175734
H           1.5312917     2.0028279    -2.1932488
H           3.2710596     2.2853356    -2.0080707
H           2.1584391     2.4593671    -0.6181998
H           2.6505911    -0.1321385    -2.1751055
N           6.2697557    -0.5543274     0.7956981
H           5.9369015    -0.8620681     1.7187464
H           7.2919393    -0.6399078     0.8133452
C           5.6817689    -1.4739415    -0.2655329
H           5.9675771    -2.4953764    -0.0019732
H           6.1470303    -1.1857962    -1.2102598
C           4.1686541    -1.2733375    -0.3061100
H           3.7163032    -1.6735099     0.6213246
H           3.7766541    -1.8799320    -1.1281715
N           3.8604916     0.1249591    -0.5423213
C           4.3401357     0.9780507     0.5272654
H           3.9346410     0.7253663     1.5268784
H           4.0755286     2.0190823     0.3334185
C           5.8647817     0.8991256     0.5932171
H           6.2814994     1.4688960     1.4276621
H           6.3207351     1.2170851    -0.3463430
33
024_C12H19N2+_0-10-11-26 (-135,) energy =    -577.9820561
C           0.3553338    -0.7757710    -1.2940322
H           0.5073132    -0.8674735    -2.3677619
C          -0.8100478    -1.2850473    -0.7199868
H          -1.5550972    -1.7648450    -1.3480454
C          -1.0154943    -1.1777694     0.6558073
H          -1.9201418    -1.5748696     1.1066085
C          -0.0544010    -0.5480802     1.4483889
H          -0.2126737    -0.4473783     2.5185135
C           1.1056187    -0.0314675     0.8690970
H           1.8182617     0.4873788     1.5036684
C           1.3354100    -0.1522740    -0.5099091
C           2.5514540     0.4593386    -1.2057404
C           2.3680551     1.9663795    -1.4344115
H           1.5009043     2.1246707    -2.0811696
H           3.2454734     2.4013890    -1.9262259
H           2.1689904     2.5067585    -0.5027857
H           2.6228940    -0.0057611    -2.1971120
N           6.2448759    -0.6271522     0.7682655
H           5.8922972    -0.9721888     1.6704976
H           7.2648765    -0.7336976     0.7956977
C           5.6546847    -1.4821063    -0.3443362
H           5.9132084    -2.5211045    -0.1251187
H           6.1422146    -1.1607954    -1.2668776
C           4.1479118    -1.2457232    -0.4009009
H           3.6685316    -1.6710299     0.5017972
H           3.7574561    -1.8086083    -1.2542712
N           3.8736951     0.1692150    -0.5827741
C           4.3485249     0.9509738     0.5433750
H           3.9206179     0.6430552     1.5179693
H           4.1049203     2.0062768     0.4063936
C           5.8697150     0.8414373     0.6303345
H           6.2815010     1.3625050     1.4983218
H           6.3469538     1.1965854    -0.2850036
33
024_C12H19N2+_0-10-11-26 (-120,) energy =    -577.9838548
C           0.5057806    -0.9621243    -1.1847064
H           0.7264417    -1.2216305    -2.2182614
C          -0.6240810    -1.5033276    -0.5687807
H          -1.2706295    -2.1769801    -1.1237546
C          -0.9230277    -1.1739316     0.7531382
H          -1.8014977    -1.5917961     1.2358960
C          -0.0952961    -0.2888745     1.4469396
H          -0.3338657    -0.0092078     2.4692789
C           1.0281448     0.2567877     0.8249253
H           1.6247781     0.9823767     1.3709185
C           1.3579569    -0.0879988    -0.4963017
C           2.5512777     0.5217760    -1.2310144
C           2.3953917     2.0333696    -1.4422689
H           1.5177248     2.2183059    -2.0677979
H           3.2740097     2.4482211    -1.9478637
H           2.2329066     2.5755010    -0.5046772
H           2.5893964     0.0622943    -2.2259372
N           6.1771897    -0.7370888     0.7703430
H           5.7689063    -1.1853428     1.6007627
H           7.1943948    -0.8409397     0.8543777
C           5.6723482    -1.4583750    -0.4705984
H           5.9276245    -2.5149737    -0.3581884
H           6.2153011    -1.0292277    -1.3150561
C           4.1706178    -1.2243324    -0.6001188
H           3.6384303    -1.7457490     0.2190276
H           3.8452880    -1.6943509    -1.5334041
N           3.8902350     0.2028214    -0.6489709
C           4.2808041     0.8469471     0.5940747
H           3.7825069     0.4232264     1.4877579
H           4.0362483     1.9111245     0.5619217
C           5.7925150     0.7349688     0.7740473
H           6.1362938     1.1568227     1.7217198
H           6.3273650     1.1947870    -0.0592400
33
024_C12H19N2+_0-10-11-26 (-105,) energy =    -577.9850838
C           0.6660043    -1.0934994    -1.0558993
H           0.9624625    -1.4772373    -2.0302371
C          -0.4112122    -1.6796670    -0.3888353
H          -0.9383718    -2.5139762    -0.8426612
C          -0.8153227    -1.1857966     0.8516624
H          -1.6560152    -1.6353214     1.3718432
C          -0.1435295    -0.0979887     1.4130622
H          -0.4647376     0.3053593     2.3692903
C           0.9294806     0.4882825     0.7406714
H           1.4106251     1.3575385     1.1813848
C           1.3591279    -0.0084342    -0.5008606
C           2.5339523     0.6033913    -1.2624846
C           2.4144232     2.1187922    -1.4603097
H           1.5241781     2.3346606    -2.0578244
H           3.2908567     2.5049747    -1.9904592
H           2.3033736     2.6675754    -0.5194442
H           2.5447529     0.1525126    -2.2617811
N           6.0788366    -0.8328635     0.7620858
H           5.6174042    -1.3582669     1.5158790
H           7.0886007    -0.9487933     0.9018735
C           5.6570515    -1.4241587    -0.5741445
H           5.9099452    -2.4870234    -0.5542546
H           6.2492368    -0.9120798    -1.3352362
C           4.1651153    -1.1784361    -0.7722524
H           3.5882502    -1.7760917    -0.0398904
H           3.9014532    -1.5582081    -1.7643116
N           3.8783150     0.2479663    -0.7052899
C           4.1957527     0.7711731     0.6155443
H           3.6311437     0.2769050     1.4299455
H           3.9594110     1.8369964     0.6626528
C           5.6913351     0.6329994     0.8817583
H           5.9712890     0.9619136     1.8854953
H           6.2799816     1.1676492     0.1335857
33
024_C12H19N2+_0-10-11-26 (-90,) energy =    -577.9851536
C           0.8351311    -1.1850185    -0.9019301
H           1.2278308    -1.6695779    -1.7939222
C          -0.2047156    -1.7931555    -0.1971164
H          -0.5997496    -2.7475082    -0.5336167
C          -0.7451228    -1.1670404     0.9268790
H          -1.5595669    -1.6328871     1.4738029
C          -0.2438263     0.0704417     1.3340162
H          -0.6693027     0.5725308     2.1983369
C           0.7956023     0.6759323     0.6255611
H           1.1522596     1.6499140     0.9493642
C           1.3533258     0.0568987    -0.5037914
C           2.5286691     0.6627421    -1.2711883
C           2.4598598     2.1819807    -1.4514711
H           1.5408078     2.4442647    -1.9835377
H           3.3148430     2.5293010    -2.0390008
H           2.4483171     2.7330072    -0.5055041
H           2.5192284     0.2263639    -2.2772119
N           6.0270466    -0.9265737     0.7215202
H           5.5427408    -1.5254742     1.4026417
H           7.0318836    -1.0451856     0.8913115
C           5.6672269    -1.3917193    -0.6806752
H           5.9365008    -2.4482387    -0.7530370
H           6.2795370    -0.8010654    -1.3650651
C           4.1798837    -1.1478700    -0.9144676
H           3.5863110    -1.8196592    -0.2640772
H           3.9628509    -1.4360528    -1.9478360
N           3.8680647     0.2618563    -0.7270801
C           4.1295629     0.6647333     0.6485522
H           3.5352192     0.0966695     1.3900968
H           3.8774919     1.7195233     0.7825070
C           5.6144210     0.5175174     0.9619367
H           5.8494607     0.7536159     2.0026167
H           6.2254811     1.1257815     0.2920034
33
024_C12H19N2+_0-10-11-26 (-75,) energy =    -577.9846222
C           0.7940376     0.3374711     1.0089868
H           1.3037593     0.2558987     1.9664501
C          -0.3285944     1.1537757     0.8918423
H          -0.6933039     1.7000279     1.7570992
C          -0.9920446     1.2577062    -0.3339631
H          -1.8716646     1.8879581    -0.4267124
C          -0.5264933     0.5379369    -1.4331693
H          -1.0424059     0.6037147    -2.3867915
C           0.5988913    -0.2826909    -1.3114965
H           0.9287837    -0.8516156    -2.1757597
C           1.2764892    -0.3895366    -0.0900979
C           2.5092736    -1.2674717     0.1010182
C           2.6328455    -2.4276952    -0.8996228
H           1.7280976    -3.0422773    -0.8767247
H           3.4774462    -3.0776486    -0.6462738
H           2.7731129    -2.0838136    -1.9298621
H           2.4382854    -1.7031044     1.1055002
N           6.2361063     0.9182721    -0.0302039
H           6.7386695     0.3690388    -0.7392765
H           6.8728524     1.6686358     0.2598098
C           4.9830256     1.5051108    -0.6684665
H           5.3051142     2.0786717    -1.5410721
H           4.5407185     2.1689644     0.0767352
C           4.0337122     0.3670040    -1.0241343
H           4.4799881    -0.2383470    -1.8387640
H           3.1141935     0.8101114    -1.4169378
N           3.7270351    -0.4010703     0.1708492
C           4.9141511    -1.0469830     0.7019221
H           5.4091882    -1.7338597    -0.0140452
H           4.6482580    -1.6429403     1.5810526
C           5.9165842     0.0135350     1.1508348
H           6.8610382    -0.4139992     1.4965001
H           5.4901834     0.6570852     1.9226741
33
024_C12H19N2+_0-10-11-26 (-60,) energy =    -577.9849318
C           0.9600027     0.4880057     0.8846726
H           1.5923667     0.5456630     1.7673129
C          -0.1625499     1.3056532     0.7828170
H          -0.4063609     1.9933667     1.5877587
C          -0.9811035     1.2321228    -0.3483152
H          -1.8602963     1.8647736    -0.4278400
C          -0.6670561     0.3364022    -1.3683133
H          -1.2998078     0.2675864    -2.2484613
C           0.4602752    -0.4845728    -1.2630404
H           0.6758021    -1.1827677    -2.0655339
C           1.2873857    -0.4199285    -0.1356619
C           2.5251812    -1.2976290     0.0388478
C           2.6885908    -2.4054412    -1.0125952
H           1.8104697    -3.0577917    -1.0160284
H           3.5575943    -3.0332153    -0.7883519
H           2.8112770    -2.0080709    -2.0259243
H           2.4389101    -1.7847471     1.0194170
N           6.2174428     0.9426227     0.0814511
H           6.7437764     0.4273215    -0.6358012
H           6.8362139     1.6909494     0.4127688
C           4.9698118     1.5345916    -0.5629547
H           5.3019920     2.1443421    -1.4067339
H           4.5011946     2.1643293     0.1956592
C           4.0465312     0.3962836    -0.9803834
H           4.5195400    -0.1727151    -1.8056463
H           3.1274790     0.8375284    -1.3765356
N           3.7264003    -0.4204131     0.1792417
C           4.9108869    -1.0680605     0.7134155
H           5.4320488    -1.7215046    -0.0150038
H           4.6344090    -1.6988664     1.5645532
C           5.8868156    -0.0095726     1.2216584
H           6.8302543    -0.4355432     1.5719462
H           5.4346717     0.5990409     2.0070713
33
024_C12H19N2+_0-10-11-26 (-45,) energy =    -577.9843795
C           1.0871122     0.6442087     0.7310281
H           1.8340913     0.8248820     1.4989866
C          -0.0458037     1.4520962     0.6626803
H          -0.1769609     2.2597945     1.3775245
C          -1.0149186     1.2195162    -0.3168541
H          -1.9002881     1.8462040    -0.3705659
C          -0.8385156     0.1743730    -1.2212911
H          -1.5855967    -0.0168887    -1.9861483
C           0.2993545    -0.6347773    -1.1522120
H           0.4085561    -1.4430579    -1.8674484
C           1.2753682    -0.4149719    -0.1725069
C           2.5216921    -1.2936073    -0.0451093
C           2.6986046    -2.3298001    -1.1659093
H           1.8633997    -3.0357719    -1.1695372
H           3.6109881    -2.9168523    -1.0154113
H           2.7477141    -1.8674750    -2.1577147
H           2.4322808    -1.8479624     0.8999442
N           6.2224942     0.9176592     0.1638367
H           6.7615394     0.4162931    -0.5538722
H           6.8398851     1.6508546     0.5298378
C           4.9965647     1.5385334    -0.4943046
H           5.3543810     2.1664010    -1.3139406
H           4.5165092     2.1541533     0.2687494
C           4.0729262     0.4210954    -0.9640418
H           4.5587886    -0.1290666    -1.7941772
H           3.1668679     0.8826951    -1.3668030
N           3.7178900    -0.4273414     0.1633343
C           4.8840199    -1.0974874     0.7097964
H           5.4188736    -1.7358354    -0.0220781
H           4.5816620    -1.7480704     1.5367860
C           5.8549977    -0.0609910     1.2698099
H           6.7854882    -0.5047829     1.6322806
H           5.3886593     0.5308729     2.0597517
33
024_C12H19N2+_0-10-11-26 (-30,) energy =    -577.9831190
C           1.1795927     0.7347637     0.5314197
H           2.0025502     1.0458662     1.1675520
C           0.0198068     1.5070042     0.4729457
H          -0.0467788     2.4229112     1.0538134
C          -1.0533408     1.1031475    -0.3228804
H          -1.9579805     1.7022114    -0.3689835
C          -0.9538702    -0.0784363    -1.0562411
H          -1.7813008    -0.4055388    -1.6792415
C           0.2097901    -0.8483640    -1.0002660
H           0.2565490    -1.7605626    -1.5852615
C           1.2929090    -0.4578772    -0.2004885
C           2.5618690    -1.3116654    -0.1016517
C           2.7735899    -2.2757291    -1.2823964
H           1.9919368    -3.0394656    -1.3027181
H           3.7276895    -2.8061962    -1.1890211
H           2.7564443    -1.7581708    -2.2473911
H           2.4688573    -1.9253539     0.8059862
N           6.2605715     0.8769729     0.2816923
H           6.8222572     0.3743757    -0.4175555
H           6.8702922     1.6019586     0.6759133
C           5.0669309     1.5135380    -0.4184593
H           5.4608573     2.1418906    -1.2209691
H           4.5665127     2.1316602     0.3293915
C           4.1500135     0.4089713    -0.9300442
H           4.6607734    -0.1407627    -1.7448890
H           3.2651605     0.8838198    -1.3633230
N           3.7426210    -0.4468398     0.1756510
C           4.8828687    -1.1284929     0.7623574
H           5.4403104    -1.7660800     0.0468172
H           4.5449928    -1.7819454     1.5729334
C           5.8396354    -0.1039131     1.3663004
H           6.7502046    -0.5588865     1.7636879
H           5.3473903     0.4881920     2.1402303
33
024_C12H19N2+_0-10-11-26 (-15,) energy =    -577.9816550
C           1.2684358     0.8404635     0.3299736
H           2.1456036     1.2534072     0.8175617
C           0.0858439     1.5819553     0.2982111
H           0.0631502     2.5769761     0.7342625
C          -1.0627826     1.0468091    -0.2829296
H          -1.9841798     1.6209789    -0.3079148
C          -1.0178892    -0.2373332    -0.8270215
H          -1.9064910    -0.6701173    -1.2774324
C           0.1664353    -0.9736832    -0.8006234
H           0.1680986    -1.9692255    -1.2325916
C           1.3304207    -0.4480640    -0.2189673
C           2.6168122    -1.2812297    -0.1756590
C           2.8385133    -2.1473733    -1.4314187
H           2.0688355    -2.9181586    -1.5139383
H           3.8012644    -2.6692809    -1.3838405
H           2.8068201    -1.5529243    -2.3503491
H           2.5280358    -1.9654739     0.6798902
N           6.3339863     0.8369180     0.3823403
H           6.9126068     0.3284313    -0.2986026
H           6.9423095     1.5455356     0.8073402
C           5.1825540     1.5042077    -0.3576705
H           5.6199659     2.1300940    -1.1392927
H           4.6682327     2.1281879     0.3758541
C           4.2634785     0.4235151    -0.9151711
H           4.7963697    -0.1303792    -1.7125174
H           3.4091084     0.9208705    -1.3827310
N           3.7924459    -0.4342946     0.1645582
C           4.8960673    -1.1426741     0.7895235
H           5.4673879    -1.7857863     0.0897092
H           4.5150170    -1.7950994     1.5812153
C           5.8486205    -0.1434144     1.4400642
H           6.7321886    -0.6209895     1.8704391
H           5.3371872     0.4527721     2.1983008
33
024_C12H19N2+_0-10-11-26 (0,) energy =    -577.9803460
C           1.2597866     0.9347399     0.1189562
H           2.1656335     1.4373879     0.4415594
C           0.0517853     1.6370026     0.1200906
H           0.0412700     2.6861197     0.4026559
C          -1.1341956     0.9950689    -0.2300956
H          -2.0742439     1.5386868    -0.2286294
C          -1.1038823    -0.3584279    -0.5720872
H          -2.0224771    -0.8756899    -0.8336120
C           0.1033954    -1.0545567    -0.5794713
H           0.0983756    -2.1086161    -0.8431186
C           1.3070386    -0.4182179    -0.2368377
C           2.6085515    -1.2261403    -0.2637312
C           2.8166482    -1.9835527    -1.5913819
H           2.0138253    -2.7063764    -1.7527621
H           3.7582726    -2.5456573    -1.5837385
H           2.8179386    -1.3059786    -2.4512935
H           2.5305272    -1.9801807     0.5306641
N           6.3423656     0.8121916     0.4693783
H           6.9409521     0.2911699    -0.1843355
H           6.9456457     1.5067133     0.9238254
C           5.2426911     1.5047599    -0.3231326
H           5.7303257     2.1210115    -1.0824055
H           4.7078656     2.1396159     0.3860616
C           4.3291382     0.4434696    -0.9262697
H           4.8918137    -0.1234127    -1.6935148
H           3.5147446     0.9587666    -1.4422982
N           3.7841114    -0.4020586     0.1285018
C           4.8415970    -1.1344057     0.8042838
H           5.4292495    -1.7912780     0.1306257
H           4.4105705    -1.7766617     1.5780914
C           5.7851713    -0.1578178     1.5006397
H           6.6361803    -0.6561075     1.9712490
H           5.2515239     0.4487658     2.2349371
33
024_C12H19N2+_0-10-11-26 (15,) energy =    -577.9821222
C           1.2015325     0.8358274     0.1236760
H           2.0663580     1.4924668     0.1196748
C          -0.0243125     1.3056796     0.6035532
H          -0.0966072     2.3166675     0.9950671
C          -1.1500584     0.4843402     0.5782374
H          -2.1021541     0.8485390     0.9526236
C          -1.0433384    -0.8132033     0.0714221
H          -1.9117941    -1.4652756     0.0543484
C           0.1804262    -1.2798374    -0.4040671
H           0.2538205    -2.2988797    -0.7787916
C           1.3156512    -0.4557758    -0.4026247
C           2.6334881    -1.0326608    -0.9283010
C           2.5670830    -1.1391485    -2.4626276
H           1.6458414    -1.6548647    -2.7426898
H           3.3984263    -1.7126366    -2.8858545
H           2.5377380    -0.1450083    -2.9224088
H           2.7452213    -2.0567613    -0.5295817
N           6.2916744     0.6137470     0.6707927
H           6.7754527    -0.2740338     0.8564978
H           6.9268265     1.3600759     0.9748939
C           6.0228557     0.7229981    -0.8215033
H           6.9826106     0.6220938    -1.3337656
H           5.6143469     1.7221829    -0.9859678
C           5.0249297    -0.3522218    -1.2398146
H           5.4934225    -1.3525687    -1.1312815
H           4.8365944    -0.2016399    -2.3035701
N           3.7908062    -0.2083954    -0.4795037
C           4.0576584    -0.4162844     0.9419805
H           4.4765156    -1.4227000     1.1480228
H           3.1219047    -0.3396911     1.5012162
C           5.0040390     0.6479234     1.4795218
H           5.2709437     0.4823329     2.5259748
H           4.5903547     1.6507834     1.3553954
33
024_C12H19N2+_0-10-11-26 (30,) energy =    -577.9845141
C           1.1589497     0.8858496    -0.0488287
H           1.9755947     1.5851586    -0.2041000
C          -0.0590423     1.3366671     0.4648494
H          -0.1800212     2.3858619     0.7200583
C          -1.1181216     0.4466199     0.6458963
H          -2.0650514     0.7976085     1.0452999
C          -0.9522047    -0.8995515     0.3137342
H          -1.7682719    -1.6018068     0.4572917
C           0.2663733    -1.3492688    -0.1938462
H           0.3893942    -2.4022800    -0.4393992
C           1.3311213    -0.4606239    -0.3940888
C           2.6344476    -0.9896203    -0.9906060
C           2.5378843    -0.9702336    -2.5267999
H           1.6044306    -1.4528722    -2.8264291
H           3.3528826    -1.5161290    -3.0138088
H           2.5135198     0.0586868    -2.9025124
H           2.7553139    -2.0419017    -0.6759862
N           6.2893900     0.5412739     0.7223629
H           6.7322660    -0.3631458     0.9286354
H           6.9428708     1.2647843     1.0423191
C           6.0722165     0.6503338    -0.7781165
H           7.0426180     0.5079654    -1.2595323
H           5.7094430     1.6638457    -0.9611111
C           5.0455269    -0.3871009    -1.2212956
H           5.4698473    -1.4051406    -1.0958647
H           4.8935037    -0.2345365    -2.2907440
N           3.7950123    -0.1949525    -0.4989173
C           4.0109504    -0.4036280     0.9307330
H           4.3864341    -1.4231114     1.1560958
H           3.0619931    -0.2883415     1.4600490
C           4.9785431     0.6299131     1.4890344
H           5.2060069     0.4646241     2.5447883
H           4.6053148     1.6455577     1.3427884
33
024_C12H19N2+_0-10-11-26 (45,) energy =    -577.9859621
C           1.0509087     0.9389443    -0.1946681
H           1.7908596     1.6682457    -0.5131982
C          -0.1542682     1.3647324     0.3645555
H          -0.3499954     2.4272527     0.4795482
C          -1.1099536     0.4299966     0.7692291
H          -2.0488219     0.7630795     1.2017462
C          -0.8521490    -0.9329762     0.6166590
H          -1.5880564    -1.6668656     0.9322269
C           0.3566975    -1.3582235     0.0625964
H           0.5528445    -2.4225721    -0.0493906
C           1.3161432    -0.4284911    -0.3559030
C           2.6034199    -0.9117600    -1.0152016
C           2.4909347    -0.7781371    -2.5435748
H           1.5472850    -1.2245233    -2.8672114
H           3.2924019    -1.2990564    -3.0781845
H           2.4818097     0.2750911    -2.8446958
H           2.7298625    -1.9835904    -0.7781534
N           6.2556343     0.5075874     0.8015274
H           6.6678337    -0.4096170     1.0147156
H           6.9212542     1.2113583     1.1398965
C           6.0778546     0.6277136    -0.7032390
H           7.0545997     0.4569868    -1.1620718
H           5.7509612     1.6525302    -0.8908471
C           5.0302046    -0.3762293    -1.1734502
H           5.4200176    -1.4075755    -1.0438052
H           4.9053573    -0.2154508    -2.2454365
N           3.7697329    -0.1513669    -0.4778649
C           3.9473049    -0.3749654     0.9540980
H           4.2909587    -1.4051122     1.1831224
H           2.9905775    -0.2371363     1.4633299
C           4.9296027     0.6303110     1.5373656
H           5.1279013     0.4576887     2.5977934
H           4.5867278     1.6554755     1.3834430
33
024_C12H19N2+_0-10-11-26 (60,) energy =    -577.9860091
C           0.9312920     0.9446853    -0.4098950
H           1.5701833     1.6835576    -0.8864894
C          -0.2663094     1.3426906     0.1826826
H          -0.5591015     2.3886446     0.1591026
C          -1.0935829     0.3987117     0.7974719
H          -2.0288280     0.7092938     1.2539938
C          -0.7148526    -0.9434587     0.8194388
H          -1.3531851    -1.6836369     1.2931650
C           0.4876925    -1.3400021     0.2292237
H           0.7736864    -2.3896663     0.2433616
C           1.3218878    -0.4027873    -0.3913235
C           2.5989107    -0.8536882    -1.0890650
C           2.4988567    -0.6292141    -2.6059424
H           1.5528640    -1.0458979    -2.9611235
H           3.2978897    -1.1289821    -3.1632926
H           2.5076322     0.4382640    -2.8503147
H           2.7119082    -1.9393144    -0.9155528
N           6.2467885     0.4249635     0.8478180
H           6.6269372    -0.5071476     1.0558946
H           6.9236900     1.1036778     1.2137568
C           6.1095502     0.5734096    -0.6585181
H           7.0919429     0.3811996    -1.0964248
H           5.8168752     1.6099796    -0.8375627
C           5.0446843    -0.3924601    -1.1683712
H           5.4023610    -1.4365959    -1.0472078
H           4.9491953    -0.2115124    -2.2401935
N           3.7751658    -0.1441593    -0.4982069
C           3.9114636    -0.3954545     0.9321583
H           4.2216878    -1.4379395     1.1545402
H           2.9473192    -0.2394624     1.4216516
C           4.9067704     0.5741096     1.5531815
H           5.0748308     0.3812052     2.6153698
H           4.5953372     1.6101129     1.4054272
33
024_C12H19N2+_0-10-11-26 (75,) energy =    -577.9850951
C           0.7672767     0.5806635     0.0908851
H           1.1042161     1.6077494    -0.0227661
C          -0.3173838     0.3184432     0.9288717
H          -0.7904484     1.1342904     1.4681682
C          -0.8042458    -0.9834307     1.0623798
H          -1.6533505    -1.1855449     1.7086257
C          -0.2025700    -2.0202523     0.3488825
H          -0.5828394    -3.0341035     0.4349687
C           0.8852874    -1.7547457    -0.4849225
H           1.3382116    -2.5689938    -1.0474524
C           1.3873373    -0.4536060    -0.6292196
C           2.6050140    -0.2103635    -1.5195675
C           2.4010728     0.9074764    -2.5483120
H           1.5799321     0.6348791    -3.2173903
H           3.3065194     1.0453135    -3.1478360
H           2.1321773     1.8667056    -2.0940909
H           2.7860256    -1.1320367    -2.0851433
N           5.9442925     0.2311195     1.1979881
H           5.4278047     0.1573696     2.0839881
H           6.9322741     0.3536849     1.4459295
C           5.7503536    -1.0560854     0.4114700
H           6.0790360    -1.8800411     1.0495052
H           6.3973569    -0.9791276    -0.4646704
C           4.2833128    -1.1714517     0.0108635
H           3.6620861    -1.3322556     0.9133007
H           4.1829390    -2.0717196    -0.6033229
N           3.8822531    -0.0058501    -0.7646024
C           3.9803025     1.2023207     0.0411854
H           3.3527672     1.1726062     0.9532113
H           3.6580354     2.0687332    -0.5412667
C           5.4337115     1.4443741     0.4360124
H           5.5526825     2.3119591     1.0896385
H           6.0733941     1.5456848    -0.4429642
33
024_C12H19N2+_0-10-11-26 (90,) energy =    -577.9851149
C           0.6262433     0.6509416    -0.1024465
H           0.8503891     1.6777863    -0.3779448
C          -0.4561692     0.4022627     0.7434948
H          -1.0480737     1.2325497     1.1182209
C          -0.7891529    -0.9073424     1.0930990
H          -1.6374468    -1.1002206     1.7432190
C          -0.0374365    -1.9680224     0.5858561
H          -0.3018807    -2.9921081     0.8335958
C           1.0444161    -1.7150067    -0.2586768
H           1.6020571    -2.5525853    -0.6735266
C           1.4012846    -0.4036389    -0.6087573
C           2.6073999    -0.1696310    -1.5191682
C           2.4341302     0.9631993    -2.5347611
H           1.5635679     0.7584998    -3.1646219
H           3.3194437     1.0316139    -3.1737260
H           2.2703554     1.9420619    -2.0725981
H           2.7599807    -1.0888739    -2.0972719