18
214_C8H8F2_0-6-11-12 (-165,) energy =    -509.3591981
C           0.6888369     0.5900318    -0.6188960
H           1.4331503     1.0561845    -1.2583006
C          -0.4625364     1.2894177    -0.2613568
H          -0.6068595     2.3069186    -0.6143094
C          -1.4296111     0.6818100     0.5432044
H          -2.3272990     1.2270094     0.8220986
C           0.8800364    -0.7241118    -0.1763674
C          -1.2402719    -0.6278761     0.9852430
H          -1.9912323    -1.1071771     1.6074400
C          -0.0878581    -1.3303668     0.6283556
H           0.0601382    -2.3497931     0.9674220
C           2.1610197    -1.4496953    -0.5329915
F           2.0077378    -2.8002661    -0.3014181
F           2.3981906    -1.3068213    -1.8858335
C           3.3968214    -0.9840373     0.2159304
H           3.2612698    -1.1328380     1.2905619
H           3.5778961     0.0774487     0.0275722
H           4.2607993    -1.5630725    -0.1233604
18
214_C8H8F2_0-6-11-12 (-150,) energy =    -509.3595693
C           0.6316978     0.5912102    -0.7316455
H           1.3224638     1.0407082    -1.4380505
C          -0.5268636     1.2690528    -0.3524192
H          -0.7324403     2.2546115    -0.7613933
C          -1.4222434     0.6806296     0.5427836
H          -2.3251940     1.2091864     0.8364331
C           0.9007809    -0.6804029    -0.2156047
C          -1.1565668    -0.5904696     1.0554243
H          -1.8543006    -1.0565226     1.7459386
C           0.0014616    -1.2705099     0.6778421
H           0.2039694    -2.2641049     1.0647765
C           2.1845158    -1.3935199    -0.5861070
F           1.9709961    -2.7567811    -0.5689869
F           2.5282855    -1.0684682    -1.8825031
C           3.3723643    -1.0897968     0.3088097
H           3.1490189    -1.3769601     1.3398477
H           3.5991704    -0.0205632     0.2825627
H           4.2418726    -1.6528150    -0.0433359
18
214_C8H8F2_0-6-11-12 (-135,) energy =    -509.3593150
C           0.5636060     0.5911038    -0.8203601
H           1.2045182     1.0214135    -1.5821536
C          -0.6078139     1.2438134    -0.4326081
H          -0.8747397     2.1897175    -0.8961009
C          -1.4359009     0.6818797     0.5396669
H          -2.3481038     1.1906673     0.8394970
C           0.9141830    -0.6262179    -0.2308154
C          -1.0919859    -0.5402076     1.1224429
H          -1.7383893    -0.9882175     1.8722365
C           0.0774019    -1.1936361     0.7370167
H           0.3353990    -2.1533375     1.1754217
C           2.1943681    -1.3371411    -0.6192841
F           1.9241564    -2.6789397    -0.8043598
F           2.6333521    -0.8621366    -1.8372570
C           3.3338869    -1.2133763     0.3752534
H           3.0350443    -1.6184359     1.3457248
H           3.6076474    -0.1624295     0.5017946
H           4.1985242    -1.7702921     0.0023575
18
214_C8H8F2_0-6-11-12 (-120,) energy =    -509.3585575
C           0.5103079     0.5910365    -0.8869144
H           1.1079656     1.0061951    -1.6903865
C          -0.6826658     1.2071734    -0.5038660
H          -1.0115449     2.1072601    -1.0162074
C          -1.4524675     0.6680534     0.5268671
H          -2.3810363     1.1483187     0.8234445
C           0.9438634    -0.5640632    -0.2318173
C          -1.0285361    -0.4955061     1.1736856
H          -1.6287728    -0.9269349     1.9700927
C           0.1622073    -1.1112099     0.7931020
H           0.4782611    -2.0273422     1.2845799
C           2.2255917    -1.2623278    -0.6408710
F           1.9211442    -2.5522055    -1.0315953
F           2.7527349    -0.6433282    -1.7553457
C           3.3111416    -1.3239877     0.4167607
H           2.9525635    -1.8475955     1.3066798
H           3.6129398    -0.3122995     0.7011005
H           4.1749765    -1.8578664     0.0103901
18
214_C8H8F2_0-6-11-12 (-105,) energy =    -509.3576325
C           0.4646249     0.5441825    -0.9400581
H           1.0338184     0.9166118    -1.7838996
C          -0.7414437     1.1483017    -0.5822336
H          -1.1100188     1.9940580    -1.1563823
C          -1.4728582     0.6682077     0.5044763
H          -2.4117615     1.1393358     0.7826114
C           0.9542151    -0.5395774    -0.2050508
C          -0.9952105    -0.4239547     1.2318432
H          -1.5633402    -0.8089630     2.0742489
C           0.2100136    -1.0275209     0.8760189
H           0.5640526    -1.8868770     1.4384904
C           2.2343709    -1.2391223    -0.6207543
F           1.9058699    -2.4486378    -1.2038167
F           2.8544091    -0.5042185    -1.6115939
C           3.2555664    -1.4923500     0.4710324
H           2.8400281    -2.1267779     1.2575278
H           3.5750064    -0.5444098     0.9121971
H           4.1214980    -1.9952060     0.0315555
18
214_C8H8F2_0-6-11-12 (-90,) energy =    -509.3569402
C           0.3968010     0.5276285    -0.9863772
H           0.9265462     0.8723346    -1.8672818
C          -0.8286383     1.0939659    -0.6379976
H          -1.2548242     1.8792491    -1.2564690
C          -1.5062027     0.6553683     0.5010369
H          -2.4607320     1.0978269     0.7729873
C           0.9610106    -0.4800430    -0.1954152
C          -0.9524423    -0.3543740     1.2889824
H          -1.4746867    -0.7033859     2.1756053
C           0.2737543    -0.9217155     0.9405045
H           0.6880523    -1.7117350     1.5595656
C           2.2604066    -1.1323885    -0.6291820
F           1.9598865    -2.2247237    -1.4230845
F           2.9463934    -0.2588615    -1.4509918
C           3.2137883    -1.5828864     0.4594282
H           2.7659899    -2.3668496     1.0744502
H           3.4890379    -0.7389860     1.0974500
H           4.1135999    -1.9830419    -0.0153596
18
214_C8H8F2_0-6-11-12 (-75,) energy =    -509.3567110
C           0.3668423     0.4727841    -1.0345425
H           0.8657801     0.7685853    -1.9514149
C          -0.8727182     1.0136242    -0.7022583
H          -1.3446027     1.7305778    -1.3686056
C          -1.5061985     0.6385303     0.4854122
H          -2.4724725     1.0620949     0.7457176
C           0.9880629    -0.4501795    -0.1829239
C          -0.8928215    -0.2801832     1.3363153
H          -1.3783550    -0.5761037     2.2622146
C           0.3493274    -0.8244587     1.0023514
H           0.8133475    -1.5394792     1.6745848
C           2.3124794    -1.0498551    -0.6124178
F           2.0679719    -1.9876727    -1.5999831
F           3.0599077    -0.0620596    -1.2276450
C           3.1798261    -1.6961878     0.4480518
H           2.6817201    -2.5659255     0.8831678
H           3.4177303    -0.9809948     1.2397552
H           4.1077255    -2.0265351    -0.0258704
18
214_C8H8F2_0-6-11-12 (-60,) energy =    -509.3566887
C           0.3036863     0.4373251    -1.0494998
H           0.7740782     0.6797347    -1.9972926
C          -0.9458182     0.9603375    -0.7295586
H          -1.4548471     1.6132922    -1.4332627
C          -1.5439511     0.6469390     0.4945735
H          -2.5192022     1.0554705     0.7452234
C           0.9695651    -0.4061177    -0.1498855
C          -0.8847804    -0.1905089     1.3931502
H          -1.3440287    -0.4373032     2.3464125
C           0.3693573    -0.7165705     1.0721047
H           0.8712341    -1.3668046     1.7819199
C           2.3224485    -0.9485628    -0.5617253
F           2.1595107    -1.6839023    -1.7221570
F           3.1250635     0.1204060    -0.9219286
C           3.0893565    -1.7970917     0.4299829
H           2.5331980    -2.7052648     0.6759481
H           3.2914159    -1.2355731     1.3457911
H           4.0404945    -2.0792484    -0.0284542
18
214_C8H8F2_0-6-11-12 (-45,) energy =    -509.3566922
C           0.2865373     0.3477440    -1.0910155
H           0.7209538     0.5177928    -2.0708819
C          -0.9750758     0.8505498    -0.7845062
H          -1.5248854     1.4206467    -1.5284285
C          -1.5342820     0.6205503     0.4756661
H          -2.5196419     1.0116071     0.7144837
C           1.0045143    -0.3913909    -0.1411594
C          -0.8242044    -0.1137021     1.4244843
H          -1.2528590    -0.2973245     2.4058734
C           0.4423961    -0.6170106     1.1176097
H           0.9835438    -1.1864427     1.8668493
C           2.3885331    -0.8824300    -0.5156714
F           2.3297060    -1.4138240    -1.7925294
F           3.2269868     0.2123126    -0.6191437
C           3.0531930    -1.9035708     0.3836900
H           2.4337864    -2.7995505     0.4747433
H           3.2369998    -1.4863919     1.3768715
H           4.0117977    -2.1776849    -0.0640892
18
214_C8H8F2_0-6-11-12 (-30,) energy =    -509.3568022
C           0.2596528     0.2690803    -1.1129193
H           0.6645582     0.3717055    -2.1136969
C          -1.0149707     0.7496099    -0.8190238
H          -1.6008007     1.2344976    -1.5952094
C          -1.5392798     0.6066943     0.4673982
H          -2.5340935     0.9794869     0.6958993
C           1.0241885    -0.3624824    -0.1240717
C          -0.7807568    -0.0176244     1.4577346
H          -1.1812132    -0.1322796     2.4612849
C           0.4967210    -0.4975558     1.1641046
H           1.0757627    -0.9772156     1.9472104
C           2.4321708    -0.8164135    -0.4595961
F           2.4860974    -1.1334399    -1.8035640
F           3.2903788     0.2569944    -0.2986549
C           2.9964781    -1.9919306     0.3128900
H           2.3580988    -2.8711028     0.1923408
H           3.0881368    -1.7559411     1.3755764
H           3.9915393    -2.2142731    -0.0813831
18
214_C8H8F2_0-6-11-12 (-15,) energy =    -509.3573512
C           0.2315167     0.1882140    -1.1214690
H           0.6146270     0.2270106    -2.1347068
C          -1.0589036     0.6370259    -0.8393401
H          -1.6782681     1.0301152    -1.6410015
C          -1.5521315     0.5833806     0.4648615
H          -2.5578873     0.9319289     0.6835186
C           1.0375902    -0.3273878    -0.1013873
C          -0.7464047     0.0822945     1.4889926
H          -1.1203640     0.0430500     2.5084415
C           0.5436059    -0.3665670     1.2079682
H           1.1651435    -0.7410574     2.0161479
C           2.4622819    -0.7572414    -0.3971851
F           2.6283842    -0.8676610    -1.7632600
F           3.3216189     0.2450922     0.0114441
C           2.9239300    -2.0619875     0.2236582
H           2.2880548    -2.8851307    -0.1127806
H           2.8931444    -2.0113108     1.3144998
H           3.9541246    -2.2513210    -0.0903403
18
214_C8H8F2_0-6-11-12 (0,) energy =    -509.3582805
C           0.2171886     0.1142058    -1.1174853
H           0.5871756     0.0919183    -2.1360711
C          -1.0894420     0.5273133    -0.8506993
H          -1.7359475     0.8287165    -1.6704561
C          -1.5623453     0.5583510     0.4611864
H          -2.5796765     0.8798965     0.6673338
C           1.0554967    -0.2806876    -0.0717396
C          -0.7214663     0.1794797     1.5104664
H          -1.0798400     0.2110857     2.5357712
C           0.5829150    -0.2335125     1.2455831
H           1.2385814    -0.5080854     2.0674313
C           2.4866359    -0.7059283    -0.3360566
F           2.7509614    -0.6263063    -1.6872134
F           3.3387459     0.1892040     0.2807699
C           2.8540458    -2.1052563     0.1224602
H           2.2338620    -2.8426325    -0.3942333
H           2.7047070    -2.2116331     1.1998445
H           3.9061746    -2.2906603    -0.1121059
18
214_C8H8F2_0-6-11-12 (15,) energy =    -509.3591474
C           0.2263473     0.0322486    -1.0959844
H           0.5920065    -0.0525455    -2.1133265
C          -1.0934714     0.4156028    -0.8506232
H          -1.7561018     0.6277622    -1.6853219
C          -1.5584907     0.5330823     0.4594491
H          -2.5857238     0.8327006     0.6488484
C           1.0853528    -0.2422519    -0.0289445
C          -0.6975727     0.2701881     1.5278175
H          -1.0508516     0.3706472     2.5504712
C           0.6203355    -0.1126785     1.2849727
H           1.2952243    -0.2972582     2.1160141
C           2.5170138    -0.6746081    -0.2711267
F           2.8650011    -0.4128474    -1.5792527
F           3.3552459     0.0874312     0.5184811
C           2.8067438    -2.1389099     0.0057825
H           2.1939812    -2.7706237    -0.6429919
H           2.5809381    -2.3809346     1.0476760
H           3.8644990    -2.3384712    -0.1894652
18
214_C8H8F2_0-6-11-12 (30,) energy =    -509.3595605
C           0.8361904     0.6989045     0.8642299
H           1.7064726     1.1955929     1.2808135
C          -0.3990661     1.3468102     0.8357859
H          -0.4860955     2.3566681     1.2274312
C          -1.5196751     0.6983317     0.3138045
H          -2.4814599     1.2037069     0.2934437
C           0.9557050    -0.6025611     0.3678224
C          -1.4024535    -0.6036247    -0.1771049
H          -2.2729751    -1.1170419    -0.5763197
C          -0.1688629    -1.2536615    -0.1495926
H          -0.0782972    -2.2712047    -0.5167231
C           2.3035676    -1.2930231     0.3507146
F           3.0713478    -0.8240292     1.3967909
F           2.1250963    -2.6436773     0.5712810
C           3.0986837    -1.1234706    -0.9313141
H           3.2947509    -0.0634904    -1.1140974
H           2.5383144    -1.5288947    -1.7780417
H           4.0495807    -1.6565302    -0.8382682
18
214_C8H8F2_0-6-11-12 (45,) energy =    -509.3593699
C           0.8630538     0.6831628     0.7456790
H           1.7624501     1.1898299     1.0834558
C          -0.3572213     1.3569802     0.7321279
H          -0.4039229     2.3951082     1.0497180
C          -1.5167192     0.6975460     0.3174703
H          -2.4677570     1.2231728     0.3072801
C           0.9310789    -0.6564003     0.3464154
C          -1.4504496    -0.6383487    -0.0802660
H          -2.3501224    -1.1581181    -0.3984634
C          -0.2297220    -1.3150834    -0.0675454
H          -0.1761701    -2.3552816    -0.3702104
C           2.2728819    -1.3584132     0.3141347
F           2.9646452    -1.0609103     1.4717629
F           2.0780072    -2.7239202     0.3221299
C           3.1565072    -1.0138851    -0.8705086
H           3.3667087     0.0588410    -0.8866401
H           2.6560980    -1.2885958    -1.8029639
H           4.0978384    -1.5652955    -0.7886771
18
214_C8H8F2_0-6-11-12 (60,) energy =    -509.3585290
C           0.8778630     0.6811170     0.6055284
H           1.7991014     1.2045250     0.8467041
C          -0.3344004     1.3680972     0.6251366
H          -0.3512092     2.4271059     0.8678797
C          -1.5242785     0.6954388     0.3361202
H          -2.4695688     1.2312260     0.3498636
C           0.9108785    -0.6853315     0.3010934
C          -1.4941394    -0.6653419     0.0309653
H          -2.4164041    -1.1947110    -0.1926726
C          -0.2803825    -1.3551414     0.0114255
H          -0.2544857    -2.4122648    -0.2271206
C           2.2434587    -1.4064373     0.2609757
F           2.8392098    -1.3080236     1.5040383
F           2.0325247    -2.7532063     0.0489520
C           3.2276924    -0.9176087    -0.7846201
H           3.4634485     0.1380652    -0.6282275
H           2.8016089    -1.0392690    -1.7841123
H           4.1472085    -1.5052266    -0.7098148
18
214_C8H8F2_0-6-11-12 (75,) energy =    -509.3574940
C           0.8771410     0.6855963     0.4548047
H           1.8098816     1.2263926     0.5870608
C          -0.3316931     1.3767673     0.5256299
H          -0.3298087     2.4490793     0.7011612
C          -1.5392835     0.6929339     0.3715093
H          -2.4813682     1.2319364     0.4242213
C           0.8904713    -0.6966278     0.2319031
C          -1.5305082    -0.6843540     0.1486040
H          -2.4660469    -1.2236222     0.0270889
C          -0.3213640    -1.3771274     0.0781722
H          -0.3130993    -2.4458840    -0.1017745
C           2.2067896    -1.4490798     0.1762393
F           2.6954485    -1.5806475     1.4630897
F           1.9755876    -2.7363834    -0.2660120
C           3.2968744    -0.8538181    -0.6934564
H           3.5733842     0.1451465    -0.3483856
H           2.9569447    -0.7900963    -1.7305269
H           4.1767536    -1.5010418    -0.6417083
18
214_C8H8F2_0-6-11-12 (90,) energy =    -509.3568636
C           0.8732974     0.6944353     0.3026286
H           1.8050855     1.2513877     0.3223700
C          -0.3351081     1.3830392     0.4177527
H          -0.3302089     2.4647419     0.5203838
C          -1.5431814     0.6853721     0.4001632
H          -2.4842948     1.2215087     0.4880938
C           0.8842435    -0.6978817     0.1677197
C          -1.5373391    -0.7045266     0.2668893
H          -2.4746103    -1.2540697     0.2499827
C          -0.3309137    -1.3930201     0.1508693
H          -0.3252383    -2.4713742     0.0375951
C           2.1853641    -1.4744597     0.0905267
F           2.5648183    -1.8262853     1.3740145
F           1.9515147    -2.6694711    -0.5624758
C           3.3641610    -0.8037666    -0.5855963
H           3.6748527     0.0891380    -0.0382705
H           3.1089204    -0.5265553    -1.6117345
H           4.1979860    -1.5105972    -0.6012227
18
214_C8H8F2_0-6-11-12 (105,) energy =    -509.3567043
C           0.8622425     0.6958397     0.1691416
H           1.7902105     1.2535626     0.0901818
C          -0.3405042     1.3898969     0.3200603
H          -0.3342469     2.4758436     0.3560215
C          -1.5429502     0.6918053     0.4236731
H          -2.4785455     1.2319946     0.5407951
C           0.8693782    -0.7004835     0.1175982
C          -1.5406016    -0.7048244     0.3741875
H          -2.4748770    -1.2541694     0.4520120
C          -0.3419867    -1.3969974     0.2217193
H          -0.3371393    -2.4809903     0.1737001
C           2.1507676    -1.5013271    -0.0015230
F           2.4290089    -2.0667161     1.2303497
F           1.9192215    -2.5712436    -0.8470679
C           3.3963861    -0.7875160    -0.4844075
H           3.6953812    -0.0062138     0.2185450
H           3.2298281    -0.3445391    -1.4697674
H           4.2033121    -1.5213860    -0.5546979
18
214_C8H8F2_0-6-11-12 (120,) energy =    -509.3566881
C           0.8431753     0.6982665     0.0537344
H           1.7614178     1.2542227    -0.1076075
C          -0.3558501     1.3940394     0.2305802
H          -0.3554618     2.4803227     0.2069768
C          -1.5455392     0.6975529     0.4369121
H          -2.4776971     1.2386882     0.5750908
C           0.8573338    -0.6977553     0.0801266
C          -1.5359832    -0.7002443     0.4646029
H          -2.4602946    -1.2487202     0.6243611
C          -0.3419915    -1.3929198     0.2873422
H          -0.3294559    -2.4782472     0.3050269
C           2.1228917    -1.5114415    -0.0951229
F           2.3053963    -2.2742492     1.0454331
F           1.9105492    -2.4276275    -1.1091176
C           3.4162085    -0.7787626    -0.3845591
H           3.6683393    -0.0983710     0.4327400
H           3.3416902    -0.2143689    -1.3176537
H           4.2119310    -1.5214808    -0.4827526
18
214_C8H8F2_0-6-11-12 (135,) energy =    -509.3566920
C           0.8632149     0.6680609    -0.0646383
H           1.7619227     1.2247837    -0.3110635
C          -0.3346105     1.3588720     0.1358547
H          -0.3539490     2.4412658     0.0427439
C          -1.4991518     0.6618097     0.4538714
H          -2.4307516     1.1991298     0.6097364
C           0.9033663    -0.7231827     0.0540806
C          -1.4639120    -0.7305011     0.5736135
H          -2.3681022    -1.2788087     0.8236232
C          -0.2701478    -1.4186970     0.3755107
H          -0.2367852    -2.4989265     0.4748955
C           2.1667015    -1.5269756    -0.1810021
F           2.2859550    -2.4576729     0.8356587
F           2.0001922    -2.2728830    -1.3348033
C           3.4804097    -0.7820845    -0.2881814
H           3.6715647    -0.2023161     0.6185333
H           3.4787176    -0.1139884    -1.1529720
H           4.2789163    -1.5174896    -0.4150536
18
214_C8H8F2_0-6-11-12 (150,) energy =    -509.3567585
C           0.8370269     0.6522656    -0.1874482
H           1.7125304     1.1986433    -0.5244112
C          -0.3529417     1.3456865     0.0412168
H          -0.3883525     2.4200098    -0.1175107
C          -1.4899305     0.6622198     0.4719245
H          -2.4158138     1.2022349     0.6506871
C           0.9000226    -0.7295579     0.0162548
C          -1.4326758    -0.7186250     0.6745645
H          -2.3140450    -1.2571070     1.0121659
C          -0.2448123    -1.4107304     0.4486797
H          -0.1948482    -2.4813384     0.6150214
C           2.1595948    -1.5242559    -0.2701603
F           2.2020999    -2.6059023     0.5897999
F           2.0580081    -2.0670366    -1.5387306
C           3.4886170    -0.8033304    -0.1699763
H           3.6176836    -0.3728590     0.8265264
H           3.5616828    -0.0105090    -0.9181073
H           4.2852978    -1.5291339    -0.3527449
18
214_C8H8F2_0-6-11-12 (165,) energy =    -509.3572145
C           0.8020074     0.6266069    -0.3315918
H           1.6433461     1.1510199    -0.7748974
C          -0.3744993     1.3265197    -0.0647388
H          -0.4341967     2.3869572    -0.2940456
C          -1.4700762     0.6670165     0.4949406
H          -2.3859583     1.2128151     0.7049460
C           0.8947060    -0.7397487    -0.0417876
C          -1.3828092    -0.6953101     0.7846543
H          -2.2311371    -1.2154458     1.2212309
C          -0.2064237    -1.3959669     0.5185714
H          -0.1348753    -2.4523058     0.7509253
C           2.1602007    -1.5148182    -0.3592780
F           2.1321055    -2.7207781     0.3123539
F           2.1623922    -1.8305615    -1.7054061
C           3.4781915    -0.8418107    -0.0278410
H           3.5290778    -0.6161970     1.0405988
H           3.6014051     0.0840487    -0.5942944
H           4.2909387    -1.5243827    -0.2906948
18
214_C8H8F2_0-6-11-12 (180,) energy =    -509.3582134
C           0.7503051     0.6007554    -0.4859063
H           1.5462809     1.0934036    -1.0376015
C          -0.4077461     1.3079637    -0.1679912
H          -0.5017759     2.3500716    -0.4610572
C          -1.4446700     0.6776071     0.5240119
H          -2.3468143     1.2294214     0.7739289
C           0.8814879    -0.7441918    -0.1183092
C          -1.3172368    -0.6617477     0.8922295
H          -2.1205347    -1.1589018     1.4292382
C          -0.1577440    -1.3711590     0.5739881
H          -0.0554849    -2.4109461     0.8625482
C           2.1548973    -1.4933011    -0.4594092
F           2.0627778    -2.7921460    -0.0049129
F           2.2756629    -1.5690880    -1.8333631
C           3.4368937    -0.9026765     0.0986505
H           3.3940446    -0.8807040     1.1908469
H           3.5878019     0.1151378    -0.2692951
H           4.2793626    -1.5247083    -0.2170538
