16
257_C6H7NOS_0-2-12-10 (-165,) energy =    -761.0164208
N           0.8829472    -0.8533605    -0.6211450
H           1.2072610    -0.5644599    -1.5335131
C           1.7410110    -0.7516473     0.4426610
O           1.5301164    -1.2945194     1.5233926
C          -0.3100522    -1.6793446    -0.5547195
H          -1.1071860    -1.2289577    -1.1539835
H          -0.6242191    -1.7339995     0.4881913
H          -0.1276873    -2.7010450    -0.9144079
C           5.1052982     0.9176613     0.6177715
H           6.0494466     1.0355400     1.1382026
C           4.0607715     0.0535796     1.0516742
H           4.0949806    -0.5718879     1.9357232
C           2.9615699     0.0724404     0.2298906
S           3.2044586     1.1890451    -1.0985345
C           4.7915774     1.5926363    -0.5315807
H           5.3889462     2.3160525    -1.0705909
16
257_C6H7NOS_0-2-12-10 (-150,) energy =    -761.0157165
N           1.0608455    -1.3757004     0.2664403
H           1.4763923    -1.6038402     1.1585279
C           1.6578887    -0.4129439    -0.5046491
O           1.1232562     0.0890411    -1.4884651
C          -0.2746623    -1.8688362    -0.0188190
H          -0.3058107    -2.9603051     0.0664115
H          -0.5232841    -1.5762120    -1.0395341
H          -1.0219256    -1.4383254     0.6603665
C           4.8174090     1.4518633     0.3318114
H           5.3884617     2.3722778     0.2770958
C           3.5307179     1.2786824    -0.2538592
H           2.9917106     2.0395504    -0.8060551
C           3.0092727     0.0249567    -0.0574552
S           4.1175207    -0.9689520     0.8654280
C           5.2637551     0.3273663     0.9725500
H           6.2069932     0.1734089     1.4797793
16
257_C6H7NOS_0-2-12-10 (-135,) energy =    -761.0139330
N           1.0579475    -1.3195108     0.2737091
H           1.4669448    -1.4803026     1.1830585
C           1.7030512    -0.4761480    -0.5910958
O           1.2083133    -0.0755933    -1.6393577
C          -0.2731714    -1.8325061     0.0045655
H          -0.3153395    -2.9110808     0.1910540
H          -0.4959786    -1.6355250    -1.0447750
H          -1.0316466    -1.3357301     0.6230381
C           4.7793365     1.4605493     0.4009481
H           5.3045897     2.4088705     0.4344082
C           3.5017484     1.2812825    -0.2048891
H           2.9289117     2.0672758    -0.6835125
C           3.0464918    -0.0106503    -0.1371808
S           4.1937147    -1.0285215     0.7070510
C           5.2795425     0.3043775     0.9358244
H           6.2309413     0.1482772     1.4268358
16
257_C6H7NOS_0-2-12-10 (-120,) energy =    -761.0113287
N           1.0191264    -1.2537967     0.2968325
H           1.4164185    -1.3379330     1.2214458
C           1.7165609    -0.5508210    -0.6474325
O           1.2750607    -0.2892191    -1.7601872
C          -0.3003233    -1.8031635     0.0419225
H          -0.3379443    -2.8655796     0.3073974
H          -0.5025707    -1.6876840    -1.0236677
H          -1.0738071    -1.2689302     0.6076521
C           4.7125058     1.4625382     0.4660352
H           5.1905968     2.4297599     0.5771081
C           3.4328689     1.2736598    -0.1353419
H           2.8165400     2.0734912    -0.5304762
C           3.0468126    -0.0408565    -0.1841931
S           4.2527207    -1.0690958     0.5570687
C           5.2789559     0.2904339     0.8862205
H           6.2468456     0.1387046     1.3452032
16
257_C6H7NOS_0-2-12-10 (-105,) energy =    -761.0088328
N           1.0828664    -1.3364751     0.2362236
H           1.3979527    -1.2200558     1.1886518
C           1.8596698    -0.8231948    -0.7646883
O           1.5503474    -0.8518271    -1.9487780
C          -0.1784875    -2.0101074    -0.0165845
H          -0.1624022    -3.0371286     0.3666989
H          -0.3243754    -2.0316239    -1.0973247
H          -1.0143754    -1.4723118     0.4464132
C           4.6444180     1.4938803     0.3544731
H           5.0220067     2.5029332     0.4798819
C           3.3663798     1.1880242    -0.2044339
H           2.6594576     1.9336803    -0.5516724
C           3.1183021    -0.1574076    -0.2773722
S           4.4548324    -1.0727826     0.3766187
C           5.3470462     0.3773093     0.7132540
H           6.3400103     0.3149644     1.1381240
16
257_C6H7NOS_0-2-12-10 (-90,) energy =    -761.0081045
N           1.0160447    -1.2663396     0.2385609
H           1.2270333    -1.0099628     1.1923685
C           1.9191497    -0.9241452    -0.7272677
O           1.7758362    -1.1765498    -1.9160368
C          -0.2253613    -1.9605689    -0.0546573
H          -0.2794335    -2.9144088     0.4829351
H          -0.2444491    -2.1526964    -1.1282016
H          -1.0956883    -1.3512101     0.2166413
C           4.6206064     1.4936590     0.4018464
H           4.9443242     2.5120203     0.5879382
C           3.3044615     1.1440989    -0.0299120
H           2.5176478     1.8660098    -0.2217315
C           3.1322585    -0.2057069    -0.1931602
S           4.6044966    -1.0701486     0.1662566
C           5.4326592     0.4047398     0.5534687
H           6.4668910     0.3760740     0.8695853
16
257_C6H7NOS_0-2-12-10 (-75,) energy =    -761.0096018
N           0.9878550    -1.2141390     0.2257331
H           1.1220940    -0.8454256     1.1562648
C           1.9918328    -1.0301258    -0.6830839
O           1.9666557    -1.4672220    -1.8265022
C          -0.2540536    -1.8918874    -0.1006034
H          -0.4005740    -2.7721248     0.5362287
H          -0.1856207    -2.2120567    -1.1411026
H          -1.1159776    -1.2238427     0.0151046
C           4.5909335     1.4857776     0.4526077
H           4.8600172     2.5071174     0.6992912
C           3.2658765     1.0693565     0.1225602
H           2.4161020     1.7419870     0.0670900
C           3.1702401    -0.2755875    -0.1335803
S           4.7338756    -1.0406169    -0.0287839
C           5.4883307     0.4544167     0.4199026
H           6.5470206     0.4798274     0.6416069
16
257_C6H7NOS_0-2-12-10 (-60,) energy =    -761.0120606
N           0.9765321    -1.1558824     0.2056585
H           1.0683376    -0.7014396     1.1026584
C           2.0472036    -1.1162281    -0.6449808
O           2.0858952    -1.7043554    -1.7195168
C          -0.2646346    -1.8310932    -0.1270384
H          -0.4768149    -2.6389187     0.5833116
H          -0.1451762    -2.2574086    -1.1239509
H          -1.1102520    -1.1328531    -0.1315623
C           4.5630883     1.4702143     0.5032909
H           4.7928032     2.4850393     0.8093650
C           3.2442641     0.9986303     0.2342417
H           2.3568652     1.6214632     0.2850376
C           3.2059869    -0.3291324    -0.1182549
S           4.8136694    -0.9988307    -0.1929521
C           5.5112022     0.4994178     0.3251177
H           6.5801022     0.5741373     0.4757447
16
257_C6H7NOS_0-2-12-10 (-45,) energy =    -761.0143576
N           0.9588579    -1.0837993     0.1595956
H           1.0221079    -0.5677169     1.0249203
C           2.0810433    -1.1750092    -0.6194080
O           2.1640348    -1.8946490    -1.6096271
C          -0.2676257    -1.7939443    -0.1529790
H          -0.5015882    -2.5411595     0.6151170
H          -0.1149438    -2.3028651    -1.1055615
H          -1.1138461    -1.1026303    -0.2431014
C           4.5473429     1.4523076     0.5427767
H           4.7578298     2.4528639     0.9046073
C           3.2345639     0.9490865     0.3102878
H           2.3308739     1.5344325     0.4472721
C           3.2261328    -0.3521108    -0.1353404
S           4.8490584    -0.9526661    -0.3387649
C           5.5178802     0.5321836     0.2470747
H           6.5902150     0.6415677     0.3423332
16
257_C6H7NOS_0-2-12-10 (-30,) energy =    -761.0158925
N           0.9145719    -0.9519631     0.1118638
H           0.9383344    -0.3838909     0.9461052
C           2.0952431    -1.1782404    -0.5456732
O           2.2281911    -2.0311461    -1.4190152
C          -0.2778389    -1.7337004    -0.1626264
H          -0.4270314    -2.5285164     0.5801484
H          -0.1532350    -2.1957638    -1.1425509
H          -1.1620909    -1.0878893    -0.1730522
C           4.5364118     1.4833749     0.5986158
H           4.7419520     2.4732466     0.9913522
C           3.2262166     0.9656783     0.3916604
H           2.3201879     1.5321097     0.5821358
C           3.2253662    -0.3156029    -0.1104824
S           4.8504102    -0.8824376    -0.3812007
C           5.5119074     0.5921420     0.2343630
H           6.5847698     0.7214153     0.2920241
16
257_C6H7NOS_0-2-12-10 (-15,) energy =    -761.0165314
N           0.8880677    -0.9058154     0.0528392
H           0.8613636    -0.2459486     0.8161320
C           2.1034701    -1.2065807    -0.5028090
O           2.2739900    -2.1476552    -1.2747760
C          -0.2850651    -1.7276565    -0.1859345
H          -0.4709826    -2.4286294     0.6387168
H          -0.1075077    -2.3026863    -1.0952695
H          -1.1693169    -1.0959707    -0.3202596
C           4.5437784     1.4610408     0.6417801
H           4.7559613     2.4251223     1.0910932
C           3.2331863     0.9309343     0.4794244
H           2.3357576     1.4663219     0.7733535
C           3.2224480    -0.3087398    -0.1192274
S           4.8386257    -0.8275968    -0.5134587
C           5.5096466     0.6172685     0.1566872
H           6.5811212     0.7691942     0.1529832
16
257_C6H7NOS_0-2-12-10 (0,) energy =    -761.0165436
N           0.8712901    -0.9125998     0.0653672
H           0.7721049    -0.0789805     0.6243982
C           2.1018662    -1.2353578    -0.4364494
O           2.3021583    -2.2299036    -1.1319658
C          -0.3066164    -1.7209506    -0.1901257
H          -0.7424926    -2.0922552     0.7451602
H           0.0066253    -2.5693664    -0.7995341
H          -1.0692911    -1.1507016    -0.7341623
C           4.5559045     1.4207409     0.7176435
H           4.7892818     2.3321005     1.2573302
C           3.2551128     0.8485857     0.6506157
H           2.3935911     1.2904692     1.1419838
C           3.2106956    -0.3087217    -0.0941183
S           4.7863851    -0.7064698    -0.7246997
C           5.4822778     0.6877688     0.0209991
H           6.5385175     0.8936157    -0.0937770
16
257_C6H7NOS_0-2-12-10 (15,) energy =    -761.0165314
N           0.8898561    -0.9109260     0.0598317
H           0.7597456     0.0379692     0.3782760
C           2.1297575    -1.2798410    -0.3906855
O           2.3384688    -2.3273247    -0.9988205
C          -0.2902694    -1.7132119    -0.2090321
H          -0.9378842    -1.7422412     0.6734179
H           0.0432287    -2.7233582    -0.4487480
H          -0.8661566    -1.3254659    -1.0599123
C           4.5762483     1.3698458     0.7821048
H           4.8286230     2.2215801     1.4043707
C           3.3045308     0.7313099     0.7862953
H           2.4898949     1.0353246     1.4361829
C           3.2295505    -0.3286071    -0.0890721
S           4.7453081    -0.5666817    -0.9151802
C           5.4514269     0.7795622    -0.0929896
H           6.4765168     1.0609950    -0.2958123
16
257_C6H7NOS_0-2-12-10 (30,) energy =    -761.0158926
N           0.8863332    -0.8732726    -0.0099843
H           0.7616190     0.1090802     0.1866347
C           2.1413935    -1.3069944    -0.3479808
O           2.3653432    -2.4136182    -0.8307716
C          -0.2921119    -1.6938827    -0.2248434
H          -0.9758782    -1.6079499     0.6261349
H           0.0377570    -2.7286519    -0.3234315
H          -0.8274224    -1.4107961    -1.1408176
C           4.5876539     1.3398700     0.8193970
H           4.8569435     2.1514859     1.4865532
C           3.3327949     0.6676800     0.8500607
H           2.5491083     0.8922716     1.5665858
C           3.2280136    -0.3230645    -0.0992949
S           4.7032097    -0.4711893    -1.0142901
C           5.4240101     0.8374754    -0.1432447
H           6.4264898     1.1633397    -0.3880251
16
257_C6H7NOS_0-2-12-10 (45,) energy =    -761.0143576
N           0.8853586    -0.8786497    -0.1568892
H           0.7767968     0.1169055    -0.0295601
C           2.1521700    -1.3734388    -0.3144923
O           2.3939513    -2.5361100    -0.6227781
C          -0.2979961    -1.7091056    -0.2845051
H          -0.9121993    -1.6658336     0.6226928
H           0.0396370    -2.7341554    -0.4426259
H          -0.9099465    -1.4008901    -1.1409867
C           4.6090257     1.2796618     0.8084606
H           4.8948337     2.0696385     1.4944561
C           3.3628164     0.5906098     0.8617648
H           2.6020591     0.7766328     1.6132259
C           3.2291135    -0.3604403    -0.1228151
S           4.6741830    -0.4640871    -1.0907861
C           5.4132313     0.8243040    -0.2024365
H           6.3992709     1.1746883    -0.4779322
16
257_C6H7NOS_0-2-12-10 (60,) energy =    -761.0120606
N           0.8724560    -0.8653450    -0.2422502
H           0.7677497     0.1375512    -0.1894182
C           2.1409092    -1.3777149    -0.2430115
O           2.3951472    -2.5673726    -0.3916595
C          -0.3110087    -1.7015631    -0.3273519
H          -0.9502245    -1.5798611     0.5553826
H           0.0267251    -2.7370724    -0.3865639
H          -0.8969752    -1.4656591    -1.2235618
C           4.6397316     1.2557995     0.8332682
H           4.9638582     2.0067491     1.5455439
C           3.4059258     0.5468723     0.9292987
H           2.6951144     0.6764201     1.7392014
C           3.2097639    -0.3396936    -0.1022992
S           4.5859667    -0.3627653    -1.1719962
C           5.3757272     0.8776007    -0.2568638
H           6.3340287     1.2611763    -0.5814357
16
257_C6H7NOS_0-2-12-10 (75,) energy =    -761.0096018
N           0.8646921    -0.8702980    -0.3042177
H           0.7711842     0.1341027    -0.3521180
C           2.1192408    -1.3857349    -0.1362506
O           2.3669330    -2.5844458    -0.1073884
C          -0.3219856    -1.7021555    -0.3935746
H          -1.0204009    -1.4908957     0.4250648
H           0.0039383    -2.7410388    -0.3278081
H          -0.8387542    -1.5485099    -1.3481344
C           4.6847015     1.2235579     0.8561693
H           5.0653692     1.9330891     1.5828408
C           3.4756459     0.4832811     1.0243630
H           2.8434001     0.5483252     1.9039424
C           3.1924333    -0.3375834    -0.0384639
S           4.4517092    -0.2525077    -1.2418734
C           5.3154354     0.9370757    -0.3228979
H           6.2317704     1.3600093    -0.7128727
16
257_C6H7NOS_0-2-12-10 (90,) energy =    -761.0081045
N           0.8760830    -0.8755796    -0.3636025
H           0.8233570     0.1169377    -0.5428327
C           2.0875171    -1.3941421    -0.0043806
O           2.2778477    -2.5779017     0.2403766
C          -0.3239447    -1.6852405    -0.4793733
H          -1.0912171    -1.3638797     0.2350567
H          -0.0424889    -2.7163218    -0.2615924
H          -0.7388261    -1.6315149    -1.4926487
C           4.7298147     1.1883324     0.8717640
H           5.1796020     1.8544502     1.6000918
C           3.5747746     0.3889826     1.1320851
H           3.0539489     0.3680123     2.0835716
C           3.1903300    -0.3678882     0.0561539
S           4.2642814    -0.1199877    -1.2962879
C           5.2115649     1.0219637    -0.3964639
H           6.0643977     1.4998344    -0.8598238
16
257_C6H7NOS_0-2-12-10 (105,) energy =    -761.0088328
N           0.9243815    -0.8939736    -0.4455692
H           0.9398998     0.0587375    -0.7803127
C           2.0648661    -1.3960455     0.1165015
O           2.1457020    -2.5138949     0.6088903
C          -0.3026549    -1.6633348    -0.5512609
H          -1.1131064    -1.1968269     0.0213108
H          -0.1015010    -2.6536851    -0.1407868
H          -0.6188546    -1.7623858    -1.5963179
C           4.7668616     1.1516087     0.8812615
H           5.2837957     1.7713669     1.6059457
C           3.6961692     0.2668641     1.2131518
H           3.3032387     0.1356321     2.2154993
C           3.2138366    -0.4241911     0.1329450
S           4.0587302     0.0333765    -1.3260667
C           5.0762371     1.1333185    -0.4503139
H           5.8496451     1.6840373    -0.9688964
16
257_C6H7NOS_0-2-12-10 (120,) energy =    -761.0113288
N           0.8646165    -0.8197548    -0.3771612
H           0.9240019     0.0401011    -0.9034230
C           1.9524162    -1.2077078     0.3566072
O           1.9477190    -2.1665786     1.1195784
C          -0.3899635    -1.5500298    -0.3557987
H          -1.1762337    -0.9823245     0.1572448
H          -0.2178986    -2.4801948     0.1872560
H          -0.7252262    -1.7784750    -1.3736607
C           4.7890072     1.2483078     0.7935073
H           5.3946923     1.8574188     1.4557429
C           3.7542544     0.3750984     1.2424980
H           3.4712006     0.2420466     2.2807178
C           3.1432562    -0.3086109     0.2233795
S           3.8168233     0.1528621    -1.3239765
C           4.9418548     1.2341939    -0.5657894
H           5.6630163     1.7724886    -1.1663411
16
257_C6H7NOS_0-2-12-10 (135,) energy =    -761.0139330
N           0.8944897    -0.8601831    -0.4391000
H           0.9538849    -0.0441212    -1.0311849
C           1.9374094    -1.1289460     0.4067094
O           1.8914075    -1.9825889     1.2860507
C          -0.3589952    -1.5898346    -0.3769550
H          -1.1555495    -0.9887574     0.0799720
H          -0.1943933    -2.4752133     0.2383261
H          -0.6770287    -1.8953926    -1.3796392
C           4.8711166     1.2038849     0.7936730
H           5.5411186     1.7462921     1.4518639
C           3.8416133     0.3313145     1.2520953
H           3.6223462     0.1278250     2.2939791
C           3.1343438    -0.2543707     0.2334314
S           3.7232026     0.2900536    -1.3227686
C           4.9296837     1.2838867    -0.5713184
H           5.6245828     1.8450908    -1.1818793
16
257_C6H7NOS_0-2-12-10 (150,) energy =    -761.0157165
N           0.8879766    -0.8899772    -0.4869183
H           0.9451404    -0.1165380    -1.1342745
C           1.8812052    -1.0351073     0.4460190
O           1.7986418    -1.7968817     1.4044541
C          -0.3604354    -1.6262394    -0.4002023
H          -1.1792751    -0.9977412    -0.0266765
H          -0.2092635    -2.4508311     0.2972906
H          -0.6389490    -2.0241946    -1.3818373
C           4.9264287     1.1471227     0.7984986
H           5.6609870     1.6093802     1.4488833
C           3.8833727     0.2930407     1.2580126
H           3.7135331     0.0209906     2.2931512
C           3.0819805    -0.1766043     0.2483039
S           3.6148019     0.4393050    -1.3023533
C           4.9081613     1.3227993    -0.5590973
H           5.5908209     1.8975180    -1.1709439
16
257_C6H7NOS_0-2-12-10 (165,) energy =    -761.0164133
N           0.8925624    -0.9051377    -0.5359551
H           0.9658312    -0.2028135    -1.2585261
C           1.8311623    -0.9236125     0.4624260
O           1.7100826    -1.5956332     1.4827792
C          -0.3482257    -1.6526558    -0.4346329
H          -1.1973025    -1.0029820    -0.1853926
H          -0.2258012    -2.3870549     0.3620994
H          -0.5616612    -2.1685271    -1.3769394
C           4.9827841     1.1010304     0.7837245
H           5.7788067     1.4718399     1.4201384
C           3.9256505     0.2635317     1.2385813
H           3.8020780    -0.0885786     2.2557418
C           3.0363347    -0.0768632     0.2500270
S           3.5144496     0.6321477    -1.2795547
C           4.8926032     1.3898326    -0.5517129
H           5.5620863     1.9864254    -1.1571504
16
257_C6H7NOS_0-2-12-10 (180,) energy =    -761.0163639
N           0.8943358    -0.9385472    -0.5298110
H           1.0537957    -0.4021169    -1.3704655
C           1.7772837    -0.8394408     0.5114071
O           1.6067328    -1.4084011     1.5867156
C          -0.3418732    -1.6919663    -0.4237354
H          -1.2154001    -1.0315675    -0.3475760
H          -0.2803240    -2.2977529     0.4809460
H          -0.4683764    -2.3470105    -1.2925687
C           5.0337025     1.0183652     0.7767277
H           5.8925739     1.2862112     1.3822960
C           3.9692428     0.1893339     1.2286401
H           3.9006489    -0.2591341     2.2123460
C           2.9914865    -0.0083112     0.2853442
S           3.3895683     0.8399764    -1.1961260
C           4.8610411     1.4473437    -0.5120366
H           5.5079574     2.0820611    -1.1030383
