29
423_C14H13NO_11-0-1-2 (-165,) energy =    -671.3007588
C           0.2481197     0.6940960    -1.1731170
N           0.3841591     1.2534749    -2.4065657
C          -0.6318453     2.0503061    -3.0570220
H          -0.9881104     2.8695647    -2.4162038
H          -1.5026757     1.4497024    -3.3554279
H          -0.2009496     2.4851978    -3.9618377
H           1.3286007     1.2288158    -2.7793359
C          -1.0241177     0.6117533    -0.5540460
H          -1.8902672     1.0134402    -1.0682756
C          -1.1843062    -0.0074349     0.6742791
H          -2.1793730    -0.0699128     1.1083562
C           1.3883877     0.1905065    -0.4522398
C           2.7480175     0.3185158    -1.0083163
C          -0.0905357    -0.5678209     1.3489202
H          -0.2255534    -1.0794306     2.2966281
C           6.3448309    -0.1245244     1.3232202
H           7.2662961    -0.2270263     1.8902891
C           5.2458975     0.5254982     1.8863997
H           5.3122502     0.9419775     2.8879529
C           1.1693297    -0.4565265     0.7828656
H           2.0193185    -0.8944578     1.2939031
C           4.0578673     0.6474920     1.1642445
H           3.2119359     1.1671963     1.6030946
C           3.9616734     0.1313082    -0.1370384
C           5.0834064    -0.4921527    -0.7054214
H           5.0148765    -0.8579139    -1.7249621
C           6.2605144    -0.6340708     0.0243614
H           7.1163481    -1.1340721    -0.4211981
O           2.9503484     0.5955691    -2.2017895
29
423_C14H13NO_11-0-1-2 (-150,) energy =    -671.2992998
C           0.2061654     0.6102309    -1.1977966
N           0.3245318     1.1304896    -2.4576984
C          -0.5628618     2.1556044    -2.9755091
H          -0.7128842     2.9785502    -2.2614486
H          -1.5486810     1.7513361    -3.2401291
H          -0.1202191     2.5631758    -3.8875744
H           1.2748769     1.1025547    -2.8164878
C          -1.0563605     0.5708392    -0.5585389
H          -1.9225621     0.9674948    -1.0773164
C          -1.2112745    -0.0077429     0.6904170
H          -2.2013269    -0.0429361     1.1386334
C           1.3487727     0.1256738    -0.4715606
C           2.7074332     0.2366368    -1.0380231
C          -0.1164371    -0.5630513     1.3671084
H          -0.2464216    -1.0449648     2.3310330
C           6.3089893    -0.0351040     1.3117686
H           7.2315370    -0.0953424     1.8831204
C           5.1939754     0.6084773     1.8502109
H           5.2486714     1.0619218     2.8362826
C           1.1383429    -0.4833121     0.7844905
H           1.9900971    -0.9123120     1.3004051
C           4.0047242     0.6763552     1.1230495
H           3.1460400     1.1910732     1.5424259
C           3.9232745     0.1117496    -0.1590962
C           5.0604229    -0.5055757    -0.7034115
H           5.0016980    -0.9098273    -1.7088903
C           6.2391817    -0.5931450     0.0320633
H           7.1073304    -1.0886899    -0.3941889
O           2.9025530     0.4526794    -2.2442006
29
423_C14H13NO_11-0-1-2 (-135,) energy =    -671.2968623
C           0.1639041     0.5304458    -1.2114988
N           0.2647249     1.0385039    -2.4898484
C          -0.4219465     2.2649117    -2.8750849
H          -0.2455776     3.0911920    -2.1698052
H          -1.5042432     2.1147264    -2.9597203
H          -0.0577104     2.5634361    -3.8613918
H           1.2099059     0.9478566    -2.8538058
C          -1.0899265     0.5132619    -0.5595517
H          -1.9572064     0.9035383    -1.0820888
C          -1.2397326    -0.0397699     0.7020362
H          -2.2259324    -0.0611262     1.1592982
C           1.3078258     0.0544301    -0.4874924
C           2.6654290     0.1385777    -1.0691011
C          -0.1420770    -0.5904196     1.3772022
H          -0.2662204    -1.0547730     2.3506016
C           6.2710096     0.0698730     1.2876673
H           7.1943000     0.0595073     1.8608994
C           5.1349052     0.6946806     1.8037238
H           5.1736514     1.1830125     2.7737289
C           1.1077776    -0.5317619     0.7812908
H           1.9618778    -0.9574780     1.2964969
C           3.9450113     0.6986404     1.0746234
H           3.0694156     1.1987147     1.4761066
C           3.8839082     0.0879419    -0.1875383
C           5.0411897    -0.5112345    -0.7098804
H           4.9957994    -0.9527462    -1.7002022
C           6.2212394    -0.5343273     0.0280464
H           7.1056358    -1.0159448    -0.3803382
O           2.8492168     0.2707184    -2.2875385
29
423_C14H13NO_11-0-1-2 (-120,) energy =    -671.2942183
C           0.1222883     0.4624675    -1.2212590
N           0.2029120     0.9711406    -2.5157007
C          -0.2246559     2.3458340    -2.7711157
H           0.3562087     3.0896333    -2.2024925
H          -1.2815927     2.4801402    -2.5228700
H          -0.1070231     2.5532649    -3.8385088
H           1.1228772     0.7785460    -2.9058582
C          -1.1276768     0.4425961    -0.5685412
H          -1.9969887     0.8126756    -1.1034867
C          -1.2729322    -0.0914100     0.7027439
H          -2.2575853    -0.1155604     1.1629002
C           1.2666436    -0.0086320    -0.5030395
C           2.6223826     0.0465358    -1.1033414
C          -0.1691727    -0.6269030     1.3790193
H          -0.2866257    -1.0787661     2.3592966
C           6.2343806     0.1897402     1.2376344
H           7.1588046     0.2315014     1.8075994
C           5.0783706     0.7917615     1.7364855
H           5.1024106     1.3138087     2.6892181
C           1.0778299    -0.5779236     0.7748991
H           1.9349667    -0.9985860     1.2897441
C           3.8874294     0.7291715     1.0120165
H           2.9956618     1.2111991     1.3995403
C           3.8451247     0.0735457    -0.2283256
C           5.0211068    -0.5037773    -0.7337543
H           4.9872084    -0.9819903    -1.7072904
C           6.2030313    -0.4594572    -0.0001241
H           7.1027997    -0.9239891    -0.3944066
O           2.7895014     0.0867539    -2.3286038
29
423_C14H13NO_11-0-1-2 (-105,) energy =    -671.2915669
C           0.0888762     0.4087989    -1.2265145
N           0.1692087     0.9423952    -2.5252280
C           0.0437438     2.3986871    -2.6466315
H           0.8354224     2.9481785    -2.1112057
H          -0.9223927     2.7315313    -2.2548482
H           0.0876141     2.6678558    -3.7061681
H           1.0402049     0.6334715    -2.9521077
C          -1.1643327     0.4002301    -0.5885230
H          -2.0210109     0.7742677    -1.1417071
C          -1.3248926    -0.1211726     0.6884373
H          -2.3126006    -0.1370750     1.1420804
C           1.2226132    -0.0649441    -0.5014952
C           2.5812538    -0.0467069    -1.1087422
C          -0.2282074    -0.6548499     1.3747813
H          -0.3544427    -1.0970866     2.3585655
C           6.1843362     0.2746349     1.2259758
H           7.1064985     0.3594354     1.7948337
C           5.0102036     0.8556620     1.7071828
H           5.0178209     1.4039531     2.6452880
C           1.0256144    -0.6204561     0.7797776
H           1.8763947    -1.0422677     1.3047907
C           3.8228354     0.7381143     0.9837726
H           2.9165394     1.2038903     1.3569690
C           3.8022157     0.0470322    -0.2378434
C           4.9952638    -0.5106572    -0.7255643
H           4.9753134    -1.0185066    -1.6843165
C           6.1741762    -0.4099455     0.0069384
H           7.0879615    -0.8586176    -0.3731298
O           2.7386877    -0.0983841    -2.3326845
29
423_C14H13NO_11-0-1-2 (-90,) energy =    -671.2888019
C           0.0333344     0.3752824    -1.2043877
N           0.1107081     0.9463507    -2.5018304
C           0.3095072     2.4027243    -2.5135537
H           1.2267926     2.7244657    -1.9924452
H          -0.5418903     2.8995742    -2.0369279
H           0.3622085     2.7417827    -3.5526353
H           0.8991307     0.5162275    -2.9824146
C          -1.2176331     0.3628639    -0.5713893
H          -2.0682192     0.7463443    -1.1273255
C          -1.3797183    -0.1641025     0.7062793
H          -2.3666659    -0.1826140     1.1612523
C           1.1655956    -0.1017674    -0.4855379
C           2.5206396    -0.1087822    -1.1115695
C          -0.2816688    -0.6938432     1.3894404
H          -0.4049403    -1.1362576     2.3737359
C           6.1377372     0.3856761     1.1669631
H           7.0627862     0.5135647     1.7229104
C           4.9503190     0.9364637     1.6512829
H           4.9499857     1.5032322     2.5783385
C           0.9746819    -0.6562447     0.7947458
H           1.8267200    -1.0763056     1.3197869
C           3.7595569     0.7647397     0.9446585
H           2.8421842     1.2068554     1.3194113
C           3.7489516     0.0484065    -0.2625049
C           4.9541110    -0.4805116    -0.7530425
H           4.9388818    -1.0101256    -1.7000035
C           6.1372649    -0.3242499    -0.0377368
H           7.0614595    -0.7495949    -0.4194140
O           2.6551599    -0.2410878    -2.3301047
29
423_C14H13NO_11-0-1-2 (-75,) energy =    -671.2860197
C          -0.0137931     0.3699821    -1.1876821
N           0.0683868     0.9921976    -2.4741166
C           0.5870479     2.3679326    -2.4237585
H           1.5797020     2.4542903    -1.9511499
H          -0.1097691     3.0033474    -1.8667387
H           0.6562867     2.7533344    -3.4457710
H           0.7300452     0.4468322    -3.0255105
C          -1.2665344     0.3340067    -0.5675193
H          -2.1124456     0.7301625    -1.1210692
C          -1.4325777    -0.2185137     0.7020341
H          -2.4216080    -0.2533330     1.1513409
C           1.1162207    -0.1142047    -0.4749020
C           2.4665530    -0.1470175    -1.1195400
C          -0.3327764    -0.7404399     1.3840793
H          -0.4553436    -1.1932282     2.3639003
C           6.0983406     0.4852957     1.0976037
H           7.0267026     0.6469357     1.6390633
C           4.9027866     1.0120846     1.5887233
H           4.8991542     1.5931155     2.5068674
C           0.9291614    -0.6820639     0.7973754
H           1.7830847    -1.0994363     1.3221864
C           3.7084841     0.7974519     0.9001713
H           2.7838953     1.2197686     1.2800149
C           3.7024786     0.0613522    -0.2951142
C           4.9146157    -0.4453553    -0.7920140
H           4.9004086    -0.9928292    -1.7287953
C           6.1018985    -0.2448575    -0.0951159
H           7.0324300    -0.6519380    -0.4812376
O           2.5763092    -0.3535892    -2.3281990
29
423_C14H13NO_11-0-1-2 (-60,) energy =    -671.2835003
C          -0.1095696     0.8643125    -0.8780354
N          -0.1391510     1.5151289    -2.1173854
C           0.8159857     2.5823619    -2.4299643
H           1.7989690     2.1613043    -2.6461309
H           0.9093629     3.3261668    -1.6232297
H           0.4683145     3.0905032    -3.3337253
H          -1.0828807     1.8436941    -2.2950367
C          -1.2951134     0.8361858    -0.1164473
H          -2.1571338     1.3927323    -0.4797919
C          -1.3911659     0.1258360     1.0734590
H          -2.3276215     0.1304653     1.6253641
C           1.0150018     0.1391413    -0.3899999
C           2.2784002    -0.0326122    -1.1778525
C          -0.2869578    -0.5763412     1.5604008
H          -0.3484816    -1.1372129     2.4880014
C           6.1429528    -0.2643745     0.7145964
H           7.1285474    -0.3171136     1.1697092
C           5.1195861     0.4447579     1.3453836
H           5.3081685     0.9537053     2.2868565
C           0.8965772    -0.5507765     0.8314912
H           1.7514971    -1.1147417     1.1901223
C           3.8506868     0.5042430     0.7677723
H           3.0602156     1.0637048     1.2581348
C           3.5969803    -0.1354476    -0.4550655
C           4.6402965    -0.8249900    -1.0929479
H           4.4398056    -1.2918328    -2.0519393
C           5.9002200    -0.9005917    -0.5067544
H           6.6966775    -1.4493004    -1.0023105
O           2.2678191    -0.1103708    -2.4016353
29
423_C14H13NO_11-0-1-2 (-45,) energy =    -671.2858261
C          -0.1268372     0.8913207    -0.8538490
N          -0.1449258     1.6090269    -2.0430188
C           0.9381982     2.4989093    -2.4616375
H           1.6871158     1.9578549    -3.0442114
H           1.4389604     2.9699760    -1.6030737
H           0.5102951     3.2878131    -3.0861472
H          -1.0513530     2.0365391    -2.1858994
C          -1.3245803     0.8292403    -0.1070326
H          -2.1895507     1.3827414    -0.4683282
C          -1.4220654     0.0971041     1.0660758
H          -2.3645891     0.0790858     1.6073528
C           0.9990115     0.1641580    -0.3708372
C           2.2532005    -0.0160619    -1.1649745
C          -0.3121562    -0.5983816     1.5565936
H          -0.3772652    -1.1749171     2.4741635
C           6.1328072    -0.2072967     0.6989914
H           7.1217649    -0.2502734     1.1478383
C           5.1053231     0.4886019     1.3379432
H           5.2941517     0.9964959     2.2799384
C           0.8757424    -0.5472301     0.8402990
H           1.7339528    -1.1087821     1.1952710
C           3.8326719     0.5363323     0.7676731
H           3.0382860     1.0852075     1.2636631
C           3.5786940    -0.1031555    -0.4551823
C           4.6251985    -0.7810191    -1.1002816
H           4.4226942    -1.2493910    -2.0580785
C           5.8897091    -0.8433285    -0.5224007
H           6.6891856    -1.3821867    -1.0239098
O           2.2259939    -0.1231526    -2.3879365
29
423_C14H13NO_11-0-1-2 (-30,) energy =    -671.2871090
C          -0.1428178     0.8861521    -0.8479119
N          -0.1416540     1.6737572    -1.9819256
C           1.0060044     2.3905675    -2.5190905
H           1.5778826     1.7719555    -3.2154080
H           1.6858584     2.7177187    -1.7194246
H           0.6403172     3.2787751    -3.0419612
H          -1.0191918     2.1562222    -2.1152835
C          -1.3519738     0.8037696    -0.1166554
H          -2.2152446     1.3584427    -0.4802977
C          -1.4578367     0.0555387     1.0433152
H          -2.4071898     0.0228989     1.5719100
C           0.9799728     0.1535007    -0.3641463
C           2.2259026    -0.0531723    -1.1618735
C          -0.3483801    -0.6386529     1.5408856
H          -0.4217973    -1.2271216     2.4501126
C           6.1178147    -0.1599225     0.6814684
H           7.1093791    -0.1828014     1.1260576
C           5.0817241     0.5240550     1.3194882
H           5.2660418     1.0420591     2.2568668
C           0.8453447    -0.5736040     0.8377994
H           1.7023346    -1.1378159     1.1922711
C           3.8063502     0.5467875     0.7538992
H           3.0047319     1.0859496     1.2488580
C           3.5575939    -0.1073637    -0.4623253
C           4.6117163    -0.7751910    -1.1055251
H           4.4116234    -1.2572506    -2.0570029
C           5.8797878    -0.8105474    -0.5332787
H           6.6859210    -1.3405469    -1.0335853
O           2.1820733    -0.2176155    -2.3790498
29
423_C14H13NO_11-0-1-2 (-15,) energy =    -671.2871168
C          -0.1195895     0.9203817    -0.8446249
N          -0.0915729     1.7926972    -1.9061570
C           1.0661372     2.3630553    -2.5669107
H           1.5082217     1.6761111    -3.2942252
H           1.8463211     2.6275810    -1.8396095
H           0.7492026     3.2793529    -3.0729077
H          -0.9634607     2.2733420    -2.0678131
C          -1.3418057     0.8136761    -0.1345537
H          -2.1990124     1.3811919    -0.4927430
C          -1.4641657     0.0311958     0.9995044
H          -2.4225427    -0.0182859     1.5102515
C           0.9937964     0.1663329    -0.3688431
C           2.2374680    -0.0517670    -1.1652280
C          -0.3617299    -0.6769967     1.4956110
H          -0.4489449    -1.2917878     2.3859387
C           6.1260991    -0.1329357     0.6843921
H           7.1165780    -0.1497408     1.1316920
C           5.0825406     0.5393041     1.3228047
H           5.2599955     1.0536822     2.2634959
C           0.8407727    -0.5939874     0.8108262
H           1.6920175    -1.1715174     1.1583241
C           3.8087933     0.5548524     0.7533626
H           3.0003168     1.0839269     1.2480658
C           3.5692450    -0.0957534    -0.4665527
C           4.6301926    -0.7532199    -1.1093098
H           4.4358086    -1.2340260    -2.0626018
C           5.8970181    -0.7802155    -0.5339384
H           6.7089716    -1.3014530    -1.0340698
O           2.1889202    -0.2407206    -2.3795176
29
423_C14H13NO_11-0-1-2 (0,) energy =    -671.2864282
C          -0.0963719     0.9525736    -0.8116930
N          -0.0392425     1.8992789    -1.8056190
C           1.0892688     2.3255725    -2.6067441
H           1.3936480     1.5819638    -3.3506413
H           1.9578263     2.5323641    -1.9691905
H           0.8102033     3.2581052    -3.1057551
H          -0.9296646     2.3044595    -2.0510543
C          -1.3274793     0.8336907    -0.1180059
H          -2.1742506     1.4241111    -0.4636363
C          -1.4689827     0.0163899     0.9888471
H          -2.4337904    -0.0413588     1.4864982
C           1.0013557     0.1659701    -0.3530200
C           2.2433892    -0.0636109    -1.1508147
C          -0.3785983    -0.7171986     1.4745400
H          -0.4801277    -1.3581231     2.3446701
C           6.1321313    -0.1058808     0.6973327
H           7.1224342    -0.1134278     1.1452944
C           5.0789729     0.5455593     1.3415624
H           5.2486251     1.0525275     2.2876794
C           0.8305696    -0.6265872     0.8021860
H           1.6727930    -1.2246728     1.1375355
C           3.8058064     0.5498672     0.7707318
H           2.9894799     1.0625439     1.2697000
C           3.5763416    -0.0922577    -0.4556306
C           4.6463634    -0.7301682    -1.1032983
H           4.4581045    -1.2059808    -2.0603082
C           5.9130550    -0.7446466    -0.5274285
H           6.7325618    -1.2499653    -1.0315557
O           2.1873330    -0.2788790    -2.3605106
29
423_C14H13NO_11-0-1-2 (15,) energy =    -671.2853787
C          -0.0751672     0.9954100    -0.7580712
N           0.0157174     2.0076077    -1.6914666
C           1.0663926     2.2693257    -2.6583137
H           1.2014804     1.4616763    -3.3856218
H           2.0253055     2.4247163    -2.1515132
H           0.8106541     3.1981463    -3.1762375
H          -0.8790571     2.4131774    -1.9255005
C          -1.3026208     0.8968664    -0.0563591
H          -2.1286940     1.5333955    -0.3686646
C          -1.4694530     0.0404667     1.0180233
H          -2.4326569    -0.0005324     1.5203596
C           0.9927358     0.1500053    -0.3389409
C           2.2342464    -0.0922114    -1.1403596
C          -0.4069366    -0.7558353     1.4613945
H          -0.5269440    -1.4284923     2.3048151
C           6.1229892    -0.0649085     0.7038454
H           7.1130726    -0.0560509     1.1522799
C           5.0532610     0.5455037     1.3608314
H           5.2095318     1.0362555     2.3176928
C           0.8004017    -0.6835364     0.7816682
H           1.6234511    -1.3238980     1.0863431
C           3.7807384     0.5296003     0.7889217
H           2.9510843     1.0103424     1.2973372
C           3.5687309    -0.0933257    -0.4504499
C           4.6546474    -0.6917992    -1.1098968
H           4.4779977    -1.1553581    -2.0750976
C           5.9211166    -0.6841941    -0.5339731
H           6.7537139    -1.1577648    -1.0473475
O           2.1688153    -0.3425732    -2.3419005
29
423_C14H13NO_11-0-1-2 (30,) energy =    -671.2846022
C           0.3197266     1.0017439    -0.2607720
N           0.9274330     2.0228636    -0.9789831
C           1.6445900     1.8400841    -2.2357360
H           1.3173902     0.9266455    -2.7475212
H           2.7286570     1.7864747    -2.0945258
H           1.4288147     2.6894784    -2.8914504
H           0.4250421     2.8966255    -0.9162851
C          -0.8418487     1.3159096     0.4804705
H          -1.1927104     2.3465048     0.4869870
C          -1.5561963     0.3420629     1.1619230
H          -2.4454962     0.6263345     1.7187240
C           0.7708697    -0.3438704    -0.2537976
C           2.0585108    -0.8534899    -0.8403524
C          -1.1558446    -0.9975651     1.1060988
H          -1.7238978    -1.7695413     1.6159073
C           5.8636447     0.8446299     0.2342645
H           6.8337480     1.2546653     0.5031079
C           4.7269172     1.2063536     0.9595329
H           4.8115000     1.8924922     1.7979350
C          -0.0091510    -1.3201342     0.3935197
H           0.3358850    -2.3484957     0.3441706
C           3.4800247     0.6848393     0.6139692
H           2.6003225     0.9619142     1.1847052
C           3.3616827    -0.2094179    -0.4599754
C           4.5129994    -0.5793153    -1.1743589
H           4.4069127    -1.2887334    -1.9887544
C           5.7543765    -0.0501876    -0.8350924
H           6.6389512    -0.3370919    -1.3974550
O           2.0596437    -1.8635525    -1.5363859
29
423_C14H13NO_11-0-1-2 (45,) energy =    -671.2850966
C           0.3404835     0.9879368    -0.2424655
N           1.0016404     2.0136842    -0.9299410
C           1.5030318     1.8175486    -2.2917312
H           0.7796321     1.3033560    -2.9421182
H           2.4377118     1.2534244    -2.2959793
H           1.7174198     2.8018601    -2.7173124
H           0.4895384     2.8838805    -0.8500834
C          -0.8429195     1.3025549     0.4556079
H          -1.2023806     2.3300137     0.4364470
C          -1.5684076     0.3328597     1.1363830
H          -2.4751908     0.6169310     1.6641090
C           0.7972498    -0.3533417    -0.2119080
C           2.0906117    -0.8625541    -0.7926260
C          -1.1539580    -1.0013893     1.1114076
H          -1.7280402    -1.7714288     1.6176660
C           5.8949959     0.8323144     0.2812687
H           6.8651983     1.2416048     0.5509480
C           4.7542949     1.2171521     0.9882375
H           4.8356475     1.9214457     1.8117290
C           0.0125145    -1.3269173     0.4294693
H           0.3618855    -2.3545324     0.3997655
C           3.5070488     0.6977964     0.6419927
H           2.6240579     0.9948754     1.1965293
C           3.3930828    -0.2195603    -0.4127953
C           4.5482403    -0.6117383    -1.1094991
H           4.4448572    -1.3376037    -1.9096481
C           5.7899898    -0.0836357    -0.7703197
H           6.6776457    -0.3880186    -1.3184083
O           2.0866010    -1.8666325    -1.4959343
29
423_C14H13NO_11-0-1-2 (60,) energy =    -671.2850263
C           0.3714386     0.9550100    -0.2477824
N           1.1036652     1.9667462    -0.9007734
C           1.3985896     1.8208484    -2.3308255
H           0.4967566     1.6770722    -2.9463093
H           2.0690375     0.9769552    -2.5034555
H           1.9167013     2.7234401    -2.6677795
H           0.6696471     2.8687245    -0.7309946
C          -0.8399918     1.2789656     0.3890075
H          -1.1999241     2.3050604     0.3387418
C          -1.5914281     0.3155919     1.0548091
H          -2.5206654     0.6026830     1.5400651
C           0.8301936    -0.3826019    -0.1801106
C           2.1331417    -0.8849732    -0.7471092
C          -1.1698510    -1.0155694     1.0684630
H          -1.7621544    -1.7794430     1.5632530
C           5.9235901     0.8648085     0.2769388
H           6.8913737     1.2871662     0.5350425
C           4.7886795     1.2226617     1.0077198
H           4.8725301     1.9190260     1.8377056
C           0.0246134    -1.3509662     0.4388347
H           0.3746947    -2.3787730     0.4360804
C           3.5447620     0.6883983     0.6746594
H           2.6653247     0.9664895     1.2444780
C           3.4281689    -0.2198882    -0.3873129
C           4.5771620    -0.5861066    -1.1066454
H           4.4731902    -1.3060880    -1.9120244
C           5.8158445    -0.0404986    -0.7830728
H           6.6987733    -0.3235716    -1.3498966
O           2.1355032    -1.8960325    -1.4413844
29
423_C14H13NO_11-0-1-2 (75,) energy =    -671.2839345
C           0.3942610     0.9413070    -0.2889950
N           1.1522253     1.9189595    -0.9835526
C           1.1442725     1.8271707    -2.4513353
H           0.1381299     1.9275424    -2.8893177
H           1.5540729     0.8639949    -2.7658661
H           1.7878662     2.6140829    -2.8563000
H           0.8366764     2.8461972    -0.7096701
C          -0.8185659     1.2747318     0.3329953
H          -1.1891026     2.2947644     0.2503215
C          -1.5552253     0.3203860     1.0321014
H          -2.4883967     0.6061231     1.5104445
C           0.8736983    -0.3818344    -0.1775045
C           2.1765387    -0.8518034    -0.7763731
C          -1.1100608    -1.0014411     1.0904645
H          -1.6901407    -1.7560800     1.6135768
C           5.9628757     0.8107586     0.3880008
H           6.9296992     1.2117519     0.6813515
C           4.8158952     1.1581385     1.1056527
H           4.8898088     1.8258330     1.9598254
C           0.0896097    -1.3451091     0.4713009
H           0.4519162    -2.3684339     0.5046685
C           3.5743103     0.6504170     0.7276709
H           2.6842473     0.9205806     1.2855396
C           3.4706665    -0.2192321    -0.3672369
C           4.6298494    -0.5735605    -1.0748436
H           4.5344170    -1.2608319    -1.9092177
C           5.8676499    -0.0555064    -0.7050335
H           6.7593812    -0.3292838    -1.2625993
O           2.1686096    -1.8064103    -1.5462458
29
423_C14H13NO_11-0-1-2 (90,) energy =    -671.2854231
C           0.2152616     1.2284689    -0.8548532
N           0.2869049     2.0804527    -1.9933926
C          -0.1071503     1.4077613    -3.2481923
H          -1.1535938     1.0933352    -3.1832516
H           0.5174858     0.5340074    -3.4755880
H          -0.0204468     2.1294157    -4.0665471
H           1.2598180     2.3481189    -2.1290163
C          -1.0279910     1.1388419    -0.2126101
H          -1.8264848     1.7807846    -0.5728780
C          -1.2399002     0.2630822     0.8481448
H          -2.2177348     0.2130122     1.3201566
C           1.2848401     0.4188684    -0.3823768
C           2.6392798     0.4683699    -1.0200179
C          -0.1964912    -0.5450138     1.3052828
H          -0.3529211    -1.2389039     2.1260757
C           6.2748755    -0.2171976     1.1821293
H           7.2056956    -0.3805532     1.7187908
C           5.1746190     0.3302216     1.8435981
H           5.2491931     0.6051393     2.8921790
C           1.0534813    -0.4473520     0.7032100
H           1.8638781    -1.0780252     1.0538443
C           3.9748046     0.5295271     1.1597862
H           3.1269463     0.9666613     1.6772380
C           3.8696721     0.1959620    -0.1995964
C           4.9915848    -0.3281533    -0.8620863
H           4.9091008    -0.5553152    -1.9200170
C           6.1806065    -0.5474063    -0.1732894
H           7.0375716    -0.9684170    -0.6920304
O           2.7780695     0.7364287    -2.2133115
29
423_C14H13NO_11-0-1-2 (105,) energy =    -671.2885139
C           0.2431945     1.1916369    -0.9066938
N           0.3476031     2.0357101    -2.0337675
C          -0.2570327     1.4990363    -3.2661156
H          -1.3256883     1.3206988    -3.1160107
H           0.2147509     0.5607135    -3.5925950
H          -0.1472839     2.2447323    -4.0592324
H           1.3331707     2.1680662    -2.2445232
C          -1.0170864     1.0711212    -0.2967552
H          -1.8304148     1.6760239    -0.6871057
C          -1.2261124     0.2169417     0.7790555
H          -2.2154258     0.1443651     1.2235964
C           1.3279524     0.4350288    -0.3793319
C           2.6879431     0.4914321    -0.9975980
C          -0.1680435    -0.5401500     1.2915627
H          -0.3241045    -1.2173294     2.1260380
C           6.3034180    -0.2346004     1.2243657
H           7.2296008    -0.4073388     1.7660826
C           5.2121056     0.3438322     1.8741690
H           5.2893288     0.6337431     2.9185212
C           1.0927769    -0.4117969     0.7226041
H           1.9128714    -1.0075036     1.1090420
C           4.0179251     0.5551096     1.1840892
H           3.1771188     1.0169026     1.6917052
C           3.9099599     0.2026617    -0.1701972
C           5.0235517    -0.3514134    -0.8217395
H           4.9404826    -0.5917588    -1.8767335
C           6.2064006    -0.5831557    -0.1261753
H           7.0566364    -1.0277052    -0.6363032
O           2.8447322     0.7731533    -2.1877051
29
423_C14H13NO_11-0-1-2 (120,) energy =    -671.2916840
C           0.2500843     1.1446876    -0.9548394
N           0.3541098     1.9332282    -2.1042101
C          -0.4485095     1.5436809    -3.2702261
H          -1.5181095     1.6171616    -3.0545030
H          -0.2340515     0.5190241    -3.6104824
H          -0.2272222     2.2382483    -4.0854332
H           1.3298053     1.9610255    -2.3900798
C          -1.0164459     0.9802216    -0.3588635
H          -1.8593402     1.5189740    -0.7807196
C          -1.1995457     0.1622393     0.7463649
H          -2.1925308     0.0581890     1.1765732
C           1.3660467     0.4658823    -0.3735053
C           2.7358236     0.5857964    -0.9460833
C          -0.1168068    -0.5274747     1.3039438
H          -0.2571958    -1.1833520     2.1576915
C           6.3237889    -0.3107292     1.2614056
H           7.2438913    -0.5237039     1.7991004
C           5.2593898     0.3094626     1.9172137
H           5.3519829     0.5923349     2.9622766
C           1.1439056    -0.3581410     0.7505648
H           1.9818272    -0.9036745     1.1694615
C           4.0721511     0.5720929     1.2325741
H           3.2524134     1.0662394     1.7446180
C           3.9449125     0.2301285    -0.1224224
C           5.0332530    -0.3632242    -0.7809477
H           4.9409934    -0.5922960    -1.8378007