26
047_C13H11NO_2-0-21-19 (-165,) energy =    -632.0030715
N           1.4078443    -1.1918535     0.0355644
H           1.6627352    -1.1395649     1.0120561
C           2.2064608    -0.4735974    -0.8310244
C           5.8330806     1.1957637     0.7833337
H           6.7482091     1.6317061     1.1748385
C           5.2783575     0.0704511     1.3950075
H           5.7660998    -0.3797365     2.2552211
C           4.1016352    -0.4883466     0.8956478
H           3.7067211    -1.3889500     1.3594013
C           3.4692506     0.0740194    -0.2228839
C           4.0462425     1.1897404    -0.8449149
H           3.5600504     1.5977350    -1.7248178
C           5.2157399     1.7521915    -0.3400167
H           5.6491726     2.6230883    -0.8240306
O           1.9268874    -0.2770235    -2.0082155
C          -2.3464473    -3.0212873    -0.5564461
H          -3.3128950    -3.4980143    -0.6924283
C          -1.8442685    -2.7972545     0.7267168
H          -2.4162410    -3.0973860     1.6006113
C          -0.6067578    -2.1834247     0.8977728
H          -0.2231406    -2.0085562     1.9014923
C           0.1525372    -1.7871217    -0.2148679
C          -0.3488828    -2.0095046    -1.5067388
H           0.2276097    -1.6915976    -2.3635982
C          -1.5921713    -2.6229034    -1.6608270
H          -1.9721377    -2.7898533    -2.6653291
26
047_C13H11NO_2-0-21-19 (-150,) energy =    -632.0023324
N           1.4645154    -1.2992232     0.0306448
H           1.7317962    -1.2746855     1.0053518
C           2.1933124    -0.4762809    -0.8087665
C           5.8274426     1.2013316     0.7775273
H           6.7432463     1.6408340     1.1634626
C           5.3410214     0.0111627     1.3208189
H           5.8826207    -0.4853076     2.1212895
C           4.1634441    -0.5522045     0.8286451
H           3.8205935    -1.5001494     1.2356443
C           3.4622341     0.0703294    -0.2144597
C           3.9705671     1.2525818    -0.7697515
H           3.4309480     1.7084461    -1.5932606
C           5.1407444     1.8191642    -0.2710270
H           5.5208212     2.7413652    -0.7019404
O           1.8498047    -0.2028724    -1.9520977
C          -2.3645983    -2.9642155    -0.5672743
H          -3.3504400    -3.3981040    -0.7076985
C          -1.9088093    -2.6499987     0.7140941
H          -2.5374156    -2.8349739     1.5810021
C          -0.6472811    -2.0871377     0.8909564
H          -0.3009286    -1.8336734     1.8912541
C           0.1829949    -1.8441769    -0.2133710
C          -0.2713522    -2.1575370    -1.5028374
H           0.3592629    -1.9519692    -2.3564762
C          -1.5407245    -2.7115750    -1.6654491
H          -1.8852741    -2.9499021    -2.6682515
26
047_C13H11NO_2-0-21-19 (-135,) energy =    -632.0010386
N           1.5164092    -1.3921835     0.0287031
H           1.8032903    -1.4041415     0.9985574
C           2.1685047    -0.4659037    -0.7711884
C           5.8286280     1.2021464     0.7618308
H           6.7498243     1.6402979     1.1363566
C           5.4045889    -0.0413979     1.2332806
H           5.9999528    -0.5796351     1.9657013
C           4.2202480    -0.6033366     0.7559600
H           3.9239386    -1.5896527     1.1035816
C           3.4501004     0.0744585    -0.2004632
C           3.8951890     1.3118648    -0.6853092
H           3.3012234     1.8116793    -1.4433524
C           5.0724408     1.8761945    -0.2008023
H           5.4038041     2.8405847    -0.5759823
O           1.7499508    -0.1136973    -1.8655557
C          -2.3701564    -2.9132320    -0.5866243
H          -3.3702767    -3.3095565    -0.7373725
C          -1.9599685    -2.5000262     0.6817681
H          -2.6398156    -2.5682488     1.5267517
C          -0.6797234    -1.9825222     0.8705804
H          -0.3682327    -1.6443014     1.8568536
C           0.2128515    -1.8968709    -0.2059978
C          -0.1960198    -2.3073782    -1.4816752
H           0.4864167    -2.2204692    -2.3170550
C          -1.4845360    -2.8082812    -1.6611473
H          -1.7953338    -3.1238464    -2.6534702
26
047_C13H11NO_2-0-21-19 (-120,) energy =    -631.9992648
N           1.1518712    -0.7070373    -0.1462188
H           1.3229548    -0.0810659    -0.9226754
C           2.2817623    -1.0738754     0.5742464
C           5.7564193     1.4352571     0.1787538
H           6.6458384     2.0524793     0.0845115
C           4.5002197     1.9719677    -0.1085404
H           4.4074242     3.0102346    -0.4151762
C           3.3578788     1.1797320     0.0087058
H           2.3833498     1.6218335    -0.1811244
C           3.4633208    -0.1578760     0.4170824
C           4.7260606    -0.6823088     0.7248774
H           4.7874729    -1.7115197     1.0628399
C           5.8664042     0.1069132     0.5985901
H           6.8418792    -0.3115276     0.8309709
O           2.3167289    -2.0576221     1.2990622
C          -2.2114348    -3.2107762    -0.6280895
H          -3.0795031    -3.8517467    -0.7538349
C          -1.5061869    -2.7578738    -1.7439769
H          -1.8175167    -3.0483768    -2.7437335
C          -0.3846952    -1.9449205    -1.5814951
H           0.1796393    -1.6104781    -2.4492060
C           0.0177277    -1.5519970    -0.2999804
C          -0.6834951    -2.0100931     0.8208204
H          -0.3531604    -1.7195226     1.8112058
C          -1.7908199    -2.8393808     0.6509771
H          -2.3310729    -3.1924556     1.5251628
26
047_C13H11NO_2-0-21-19 (-105,) energy =    -631.9972586
N           1.1341444    -0.6798022    -0.1230567
H           1.2620185     0.0106113    -0.8521741
C           2.3013683    -1.1158250     0.4919248
C           5.7474447     1.4479118     0.2094399
H           6.6297391     2.0787138     0.1414568
C           4.4779690     2.0012532     0.0334658
H           4.3683653     3.0648415    -0.1600831
C           3.3446366     1.1919699     0.1174484
H           2.3607651     1.6421702     0.0158679
C           3.4726555    -0.1796194     0.3803182
C           4.7494513    -0.7230251     0.5766566
H           4.8289968    -1.7812663     0.8027821
C           5.8804671     0.0841967     0.4840629
H           6.8667150    -0.3480921     0.6294720
O           2.3723995    -2.1741017     1.0986990
C          -2.2014563    -3.2253672    -0.6077023
H          -3.0613970    -3.8777596    -0.7313306
C          -1.4046968    -2.9026814    -1.7073398
H          -1.6368467    -3.3068619    -2.6889445
C          -0.2935578    -2.0742091    -1.5476727
H           0.3442447    -1.8398662    -2.3964871
C           0.0039290    -1.5377970    -0.2910360
C          -0.7879674    -1.8668876     0.8124534
H          -0.5351505    -1.4586504     1.7852792
C          -1.8851267    -2.7119927     0.6520688
H          -2.4975859    -2.9652353     1.5131221
26
047_C13H11NO_2-0-21-19 (-90,) energy =    -631.9957358
N           1.1540365    -0.6982376    -0.1295064
H           1.2108377     0.0998441    -0.7490017
C           2.3542663    -1.1768400     0.3689671
C           5.7398719     1.4817567     0.2674416
H           6.6070973     2.1362122     0.2426519
C           4.4544541     2.0238216     0.2178294
H           4.3176786     3.1005533     0.1657681
C           3.3402951     1.1845095     0.2468389
H           2.3454686     1.6220135     0.2458080
C           3.5031384    -0.2059483     0.3269599
C           4.7966774    -0.7402172     0.3973744
H           4.9038664    -1.8165201     0.4834394
C           5.9084916     0.0976471     0.3602932
H           6.9075926    -0.3270270     0.4074589
O           2.4755276    -2.3045287     0.8254163
C          -2.2268898    -3.1932950    -0.5928722
H          -3.0988212    -3.8309200    -0.7105234
C          -1.3183725    -3.0509648    -1.6434493
H          -1.4779143    -3.5803947    -2.5788426
C          -0.1946621    -2.2382806    -1.4914949
H           0.5264521    -2.1356173    -2.2978711
C           0.0120956    -1.5502792    -0.2923936
C          -0.8934038    -1.6964259     0.7607402
H          -0.7125373    -1.1634994     1.6890011
C          -2.0098926    -2.5192439     0.6103851
H          -2.7114698    -2.6309571     1.4325346
26
047_C13H11NO_2-0-21-19 (-75,) energy =    -631.9960695
N           1.2347356    -0.8425981    -0.4552212
H           1.0949089     0.1577308    -0.4653350
C           2.4723818    -1.3154030    -0.0652493
C           5.6687500     1.5189063     0.5080003
H           6.4906197     2.2154446     0.6502857
C           4.3501885     1.9669850     0.5994619
H           4.1416002     3.0096917     0.8227464
C           3.2941933     1.0745125     0.4133185
H           2.2773079     1.4436448     0.5234543
C           3.5451371    -0.2766963     0.1351517
C           4.8731508    -0.7200348     0.0656393
H           5.0510725    -1.7726375    -0.1273266
C           5.9277114     0.1717446     0.2431187
H           6.9526028    -0.1833313     0.1781113
O           2.7049031    -2.5099080     0.0641339
C          -2.3178168    -3.1265593    -0.4897000
H          -3.2386638    -3.7029692    -0.5081219
C          -1.3189777    -3.3694939    -1.4352470
H          -1.4620270    -4.1340597    -2.1939350
C          -0.1408139    -2.6239121    -1.4220562
H           0.6378322    -2.7960590    -2.1574437
C           0.0539711    -1.6487442    -0.4397664
C          -0.9445674    -1.4034167     0.5073532
H          -0.7862304    -0.6432390     1.2681459
C          -2.1299766    -2.1390327     0.4785191
H          -2.9022246    -1.9439177     1.2176379
26
047_C13H11NO_2-0-21-19 (-60,) energy =    -631.9982038
N           1.2366839    -0.8520108    -0.4459767
H           1.0898200     0.1414337    -0.3360303
C           2.5028237    -1.3338931    -0.1682104
C           5.6559684     1.5122207     0.5560453
H           6.4667101     2.2135950     0.7337350
C           4.3353933     1.9004287     0.7866714
H           4.1148017     2.8989207     1.1539489
C           3.2930027     1.0026651     0.5555659
H           2.2764742     1.3190026     0.7771523
C           3.5599745    -0.2936734     0.0921628
C           4.8915424    -0.6798719    -0.1157041
H           5.0842700    -1.6934342    -0.4509730
C           5.9319746     0.2182910     0.1068204
H           6.9591599    -0.0905019    -0.0669224
O           2.7698248    -2.5284156    -0.1837372
C          -2.3340100    -3.1017091    -0.4747230
H          -3.2612571    -3.6676002    -0.4917503
C          -1.2588214    -3.4864608    -1.2791080
H          -1.3496146    -4.3524846    -1.9291295
C          -0.0704200    -2.7578299    -1.2722184
H           0.7650491    -3.0474102    -1.8981977
C           0.0583240    -1.6505682    -0.4258657
C          -1.0179792    -1.2605777     0.3786130
H          -0.9158255    -0.3970764     1.0321010
C          -2.2110113    -1.9826572     0.3497913
H          -3.0408861    -1.6722364     0.9788437
26
047_C13H11NO_2-0-21-19 (-45,) energy =    -632.0002540
N           1.2403589    -0.8759598    -0.3914633
H           1.0969303     0.1102166    -0.2261885
C           2.5276556    -1.3505895    -0.2289274
C           5.6463491     1.5133376     0.5709312
H           6.4489827     2.2197927     0.7645916
C           4.3348532     1.8313626     0.9268480
H           4.1142401     2.7800085     1.4083905
C           3.3034030     0.9265080     0.6750157
H           2.2965100     1.1824006     0.9962700
C           3.5726155    -0.3073450     0.0650766
C           4.8965692    -0.6260716    -0.2679734
H           5.0935939    -1.5941408    -0.7161889
C           5.9250272     0.2804200    -0.0243875
H           6.9456735     0.0253293    -0.2960334
O           2.8232333    -2.5318995    -0.3618062
C          -2.3546924    -3.0799733    -0.5007857
H          -3.2887975    -3.6333850    -0.5362443
C          -1.2225915    -3.5642488    -1.1592927
H          -1.2751224    -4.4968189    -1.7147621
C          -0.0202909    -2.8587983    -1.1303672
H           0.8581347    -3.2328562    -1.6393264
C           0.0602802    -1.6622840    -0.4051597
C          -1.0753783    -1.1713446     0.2522373
H          -1.0130830    -0.2393067     0.8103505
C          -2.2766082    -1.8762080     0.2011311
H          -3.1491807    -1.4845887     0.7169685
26
047_C13H11NO_2-0-21-19 (-30,) energy =    -632.0018111
N           1.2501389    -0.8941598    -0.3145718
H           1.1086526     0.0879303    -0.1251758
C           2.5517086    -1.3486428    -0.2616897
C           5.6363818     1.5387875     0.5807882
H           6.4300801     2.2526419     0.7838676
C           4.3436567     1.7794689     1.0485164
H           4.1299741     2.6741434     1.6267684
C           3.3234475     0.8651135     0.7851979
H           2.3333985     1.0538354     1.1935023
C           3.5863273    -0.3008033     0.0513620
C           4.8928760    -0.5445179    -0.3942627
H           5.0875226    -1.4630138    -0.9378182
C           5.9091056     0.3724694    -0.1387268
H           6.9158464     0.1772256    -0.4977960
O           2.8696576    -2.5101315    -0.4904062
C          -2.3680322    -3.0517923    -0.5190653
H          -3.3084646    -3.5925054    -0.5748593
C          -1.1981558    -3.6151303    -1.0312093
H          -1.2264261    -4.5988209    -1.4924466
C           0.0166612    -2.9322455    -0.9745936
H           0.9233263    -3.3698196    -1.3683974
C           0.0666880    -1.6666610    -0.3717957
C          -1.1086932    -1.0960606     0.1390983
H          -1.0721201    -0.1117483     0.6022565
C          -2.3170091    -1.7842050     0.0634215
H          -3.2176549    -1.3283085     0.4657922
26
047_C13H11NO_2-0-21-19 (-15,) energy =    -632.0027915
N           1.2561253    -0.9224123    -0.2168748
H           1.1166371     0.0564898    -0.0101490
C           2.5637432    -1.3544702    -0.2743801
C           5.6340474     1.5442067     0.5788493
H           6.4233590     2.2625092     0.7832644
C           4.3679491     1.7199386     1.1392597
H           4.1715295     2.5670495     1.7906617
C           3.3528581     0.8002095     0.8748682
H           2.3860835     0.9336402     1.3544362
C           3.5949355    -0.3059350     0.0472314
C           4.8761520    -0.4861771    -0.4920937
H           5.0566060    -1.3604165    -1.1086640
C           5.8865271     0.4369130    -0.2351912
H           6.8730952     0.2921590    -0.6668377
O           2.8906854    -2.4930443    -0.5916073
C          -2.3793358    -3.0335733    -0.5533828
H          -3.3246690    -3.5616623    -0.6387853
C          -1.1864080    -3.6530098    -0.9280722
H          -1.2010466    -4.6702329    -1.3105882
C           0.0371497    -2.9900398    -0.8300254
H           0.9607565    -3.4702980    -1.1199312
C           0.0690524    -1.6784323    -0.3319187
C          -1.1302267    -1.0517945     0.0429738
H          -1.1087469    -0.0334215     0.4271311
C          -2.3434872    -1.7247071    -0.0688098
H          -3.2610839    -1.2234462     0.2272787
26
047_C13H11NO_2-0-21-19 (0,) energy =    -632.0032092
N           1.2581431    -0.9486630    -0.1193317
H           1.1189676     0.0260506     0.1069850
C           2.5654857    -1.3520141    -0.2873634
C           5.6328401     1.5476696     0.5739621
H           6.4210642     2.2673730     0.7776782
C           4.3986665     1.6627110     1.2154378
H           4.2266896     2.4636310     1.9292172
C           3.3851586     0.7410375     0.9515877
H           2.4459666     0.8243882     1.4930797
C           3.5969209    -0.3067946     0.0434427
C           4.8475617    -0.4276905    -0.5777469
H           5.0059549    -1.2582863    -1.2574995
C           5.8556778     0.4979665    -0.3209884
H           6.8178258     0.3999645    -0.8162011
O           2.8908074    -2.4630552    -0.6921605
C          -2.3861636    -3.0183594    -0.5914075
H          -3.3339587    -3.5360957    -0.7073147
C          -1.1825902    -3.6814686    -0.8334312
H          -1.1911084    -4.7238083    -1.1412465
C           0.0450637    -3.0338710    -0.6921403
H           0.9760046    -3.5472064    -0.8852173
C           0.0690276    -1.6880102    -0.2942610
C          -1.1412124    -1.0182047    -0.0504038
H          -1.1263823     0.0256952     0.2583919
C          -2.3570112    -1.6787892    -0.1989597
H          -3.2824102    -1.1428466    -0.0057813
26
047_C13H11NO_2-0-21-19 (15,) energy =    -632.0031089
N           1.2604702    -0.9725005    -0.0230147
H           1.1219336    -0.0026318     0.2248219
C           2.5605299    -1.3418865    -0.3016777
C           5.6366546     1.5433414     0.5699992
H           6.4259078     2.2614850     0.7752599
C           4.4397477     1.5973203     1.2859456
H           4.2987455     2.3483469     2.0583550
C           3.4243996     0.6780342     1.0207806
H           2.5155291     0.7097780     1.6166256
C           3.5982527    -0.3060510     0.0365434
C           4.8125832    -0.3674059    -0.6607271
H           4.9427899    -1.1503992    -1.4003730
C           5.8217336     0.5565324    -0.4019103
H           6.7553527     0.5060604    -0.9554355
O           2.8710090    -2.4205059    -0.7945845
C          -2.3815579    -3.0107114    -0.6301224
H          -3.3282409    -3.5225567    -0.7770524
C          -1.1768647    -3.7069133    -0.7364856
H          -1.1832592    -4.7690479    -0.9669323
C           0.0491216    -3.0679809    -0.5506885
H           0.9805914    -3.6078106    -0.6432813
C           0.0709866    -1.6957977    -0.2563810
C          -1.1400573    -0.9936528    -0.1469563
H          -1.1268426     0.0702988     0.0834011
C          -2.3549778    -1.6469689    -0.3326512
H          -3.2814249    -1.0857573    -0.2451441
26
047_C13H11NO_2-0-21-19 (30,) energy =    -632.0024691
N           1.2576978    -0.9918390     0.0802683
H           1.1171672    -0.0299993     0.3579316
C           2.5424587    -1.3174903    -0.3135845
C           5.6410181     1.5378392     0.5723970
H           6.4349715     2.2501887     0.7797599
C           4.4835709     1.5354426     1.3525204
H           4.3786795     2.2363025     2.1761390
C           3.4619929     0.6237635     1.0851522
H           2.5855381     0.6088590     1.7281416
C           3.5905121    -0.2962054     0.0341936
C           4.7660741    -0.3020264    -0.7290562
H           4.8614738    -1.0363883    -1.5219854
C           5.7809936     0.6147302    -0.4672958
H           6.6840806     0.6081179    -1.0714372
O           2.8265263    -2.3545879    -0.9002987
C          -2.3698316    -3.0081736    -0.6702017
H          -3.3120135    -3.5174158    -0.8513344
C          -1.1734924    -3.7266683    -0.6358425
H          -1.1824310    -4.8026982    -0.7882811
C           0.0446449    -3.0900024    -0.4008224
H           0.9699731    -3.6486605    -0.3835061
C           0.0698534    -1.7001412    -0.2110866
C          -1.1317078    -0.9765466    -0.2409465
H          -1.1150705     0.1013215    -0.0898551
C          -2.3417869    -1.6274113    -0.4679611
H          -3.2624741    -1.0505642    -0.4896632
26
047_C13H11NO_2-0-21-19 (45,) energy =    -632.0012656
N           1.2551051    -1.0131982     0.1725939
H           1.1105985    -0.0617765     0.4840173
C           2.5157177    -1.2876356    -0.3350385
C           5.6432141     1.5263022     0.5757208
H           6.4434657     2.2300860     0.7881777
C           4.5346685     1.4528275     1.4208416
H           4.4749728     2.0895804     2.2992280
C           3.5049940     0.5522233     1.1470617
H           2.6673770     0.4792894     1.8359454
C           3.5770846    -0.2855988     0.0244855
C           4.7043567    -0.2212940    -0.8058705
H           4.7564100    -0.8935252    -1.6559421
C           5.7268468     0.6849630    -0.5369079
H           6.5920278     0.7337875    -1.1924100
O           2.7625720    -2.2737552    -1.0162890
C          -2.3544981    -3.0078994    -0.7116678
H          -3.2909636    -3.5155311    -0.9244861
C          -1.1815206    -3.7424108    -0.5246490
H          -1.2037851    -4.8270814    -0.5878014
C           0.0256017    -3.1050112    -0.2429856
H           0.9340062    -3.6754016    -0.0999629
C           0.0678676    -1.7057122    -0.1715421
C          -1.1085695    -0.9669468    -0.3537463
H          -1.0767267     0.1191447    -0.2928555
C          -2.3128662    -1.6160886    -0.6200238
H          -3.2168755    -1.0296586    -0.7605330
26
047_C13H11NO_2-0-21-19 (60,) energy =    -631.9994990
N           1.2661801    -1.0397843     0.2371339
H           1.1196417    -0.1096876     0.6079010
C           2.4924865    -1.2402609    -0.3841526
C           5.6555199     1.5152661     0.5781194
H           6.4635576     2.2063423     0.8026161
C           4.5950240     1.3657839     1.4734934
H           4.5808836     1.9305661     2.4016294
C           3.5554111     0.4813762     1.1848868
H           2.7561594     0.3469372     1.9089944
C           3.5694721    -0.2634424    -0.0034819
C           4.6488595    -0.1234653    -0.8864511
H           4.6560735    -0.7249248    -1.7894770
C           5.6814374     0.7663003    -0.6013744
H           6.5094836     0.8741789    -1.2965990
O           2.6949273    -2.1546315    -1.1702113
C          -2.3249388    -3.0204115    -0.7555965
H          -3.2555318    -3.5276394    -0.9940604
C          -1.1894362    -3.7585113    -0.4127203
H          -1.2358388    -4.8436555    -0.3795269
C           0.0051642    -3.1161731    -0.0932606
H           0.8862236    -3.6844791     0.1808521
C           0.0775459    -1.7191310    -0.1477790
C          -1.0591861    -0.9772303    -0.4873799
H          -1.0017947     0.1084996    -0.5246064
C          -2.2567245    -1.6271438    -0.7860437
H          -3.1333255    -1.0412026    -1.0488446
26
047_C13H11NO_2-0-21-19 (75,) energy =    -631.9974315
N           1.2739827    -1.0607058     0.2806037
H           1.1326844    -0.1690567     0.7383510
C           2.4571401    -1.1793177    -0.4376951
C           5.6657202     1.4954623     0.5995252
H           6.4837989     2.1682382     0.8426013
C           4.6628652     1.2478365     1.5385222
H           4.7037717     1.7173287     2.5176034
C           3.6104048     0.3867849     1.2266553
H           2.8567432     0.1737216     1.9800728
C           3.5537740    -0.2357669    -0.0287511
C           4.5757625     0.0018903    -0.9577635
H           4.5289648    -0.5063533    -1.9152797
C           5.6212897     0.8682447    -0.6484836
H           6.4046229     1.0527472    -1.3785779
O           2.6083409    -2.0044750    -1.3265130
C          -2.3197209    -3.0213351    -0.7564797
H          -3.2498024    -3.5241774    -1.0064322
C          -1.2446811    -3.7499514    -0.2420426
H          -1.3373485    -4.8214110    -0.0869622
C          -0.0539532    -3.1073313     0.0928208
H           0.7818245    -3.6613022     0.5070661
C           0.0771075    -1.7313696    -0.1175553
C          -0.9980836    -0.9996395    -0.6306870
H          -0.8923991     0.0708332    -0.7898051
C          -2.1951878    -1.6441780    -0.9446338
H          -3.0266499    -1.0689879    -1.3428844
26
047_C13H11NO_2-0-21-19 (90,) energy =    -631.9958196
N           1.2769741    -1.0625065     0.2859371
H           1.1616229    -0.2506651     0.8789206
C           2.4107638    -1.0858148    -0.5094343
C           5.6881667     1.4589308     0.6396553
H           6.5224043     2.1007021     0.9101826
C           4.7445097     1.0974245     1.6026996
H           4.8476919     1.4470374     2.6263637
C           3.6715277     0.2757571     1.2560387
H           2.9652925    -0.0284587     2.0240026
C           3.5343403    -0.1925996    -0.0585591
C           4.4975495     0.1582815    -1.0139535
H           4.3891833    -0.2325985    -2.0203405
C           5.5638735     0.9850439    -0.6690997
H           6.3012634     1.2579332    -1.4191356
O           2.5034763    -1.7929281    -1.5025544
C          -2.3129019    -3.0396329    -0.7495350
H          -3.2398407    -3.5466008    -1.0033207
C          -1.3138101    -3.7175183    -0.0482180
H          -1.4614864    -4.7525834     0.2474985
C          -0.1264126    -3.0660104     0.2855366
H           0.6549774    -3.5772227     0.8391129
C           0.0724863    -1.7382909    -0.0999290
C          -0.9264264    -1.0587182    -0.8028936
H          -0.7623095    -0.0268232    -1.1016067
C          -2.1184736    -1.7087929    -1.1238767
H          -2.8917683    -1.1766934    -1.6712388
26
047_C13H11NO_2-0-21-19 (105,) energy =    -631.9959259
N           1.1644178    -0.7554433     0.1372879
H           1.2805515    -0.4421626     1.0905772
C           2.2630009    -0.6952692    -0.6971786
C           5.8295533     1.2422123     0.7537296
H           6.7360843     1.7334918     1.0968542
C           4.9223300     0.7250788     1.6796250
H           5.1243216     0.8027263     2.7444214
C           3.7563003     0.0975893     1.2402682
H           3.0834092    -0.3269607     1.9815016
C           3.4856316    -0.0212345    -0.1303321
C           4.4135402     0.4830570    -1.0520143
H           4.2017060     0.3623737    -2.1091141
C           5.5733484     1.1170978    -0.6140634
H           6.2803070     1.5115323    -1.3388743
O           2.2389808    -1.1180891    -1.8451483
C          -2.2052430    -3.1663054    -0.6866297
H          -3.0732463    -3.7845557    -0.8986153
C          -1.3032072    -3.5436328     0.3096256
H          -1.4622128    -4.4594503     0.8724207
C          -0.1826850    -2.7553712     0.5738224
H           0.5365253    -3.0546751     1.3318805
C           0.0213263    -1.5694073    -0.1381552
C          -0.8757265    -1.1951821    -1.1420608
H          -0.6941700    -0.2834143    -1.7010824
C          -1.9843764    -1.9957412    -1.4153304
H          -2.6790614    -1.7018834    -2.1974051
26
047_C13H11NO_2-0-21-19 (120,) energy =    -631.9979785
N           1.1544393    -0.7441238     0.1265129
H           1.3320115    -0.5511518     1.1021070
C           2.2149144    -0.5807970    -0.7462439
C           5.8435757     1.1861781     0.7656510
H           6.7648958     1.6373929     1.1240043
C           4.9868276     0.5430516     1.6601163
H           5.2431529     0.4820756     2.7142084
C           3.8020610    -0.0332181     1.2014125
H           3.1706522    -0.5589603     1.9137056
C           3.4611385     0.0263739    -0.1575326
C           4.3393403     0.6560822    -1.0505792
H           4.0744611     0.6731469    -2.1024359
C           5.5179593     1.2386572    -0.5920443
H           6.1854954     1.7317323    -1.2933996
O           2.1393880    -0.8595944    -1.9355073
C          -2.2002983    -3.1826647    -0.6565029
H          -3.0644947    -3.8106252    -0.8542850
C          -1.3962081    -3.4281589     0.4577600
H          -1.6261010    -4.2514281     1.1287420
C          -0.2796377    -2.6299113     0.7043633
H           0.3633046    -2.8342167     1.5574294
C           0.0174842    -1.5576450    -0.1444922
C          -0.7813817    -1.3146114    -1.2667340
H          -0.5277900    -0.4988402    -1.9329006
C          -1.8836641    -2.1306411    -1.5185499
H          -2.5010993    -1.9381058    -2.3917477
26
047_C13H11NO_2-0-21-19 (135,) energy =    -632.0000263
N           1.1852175    -0.8000243     0.1009229
H           1.3903233    -0.6577645     1.0797780
C           2.2058509    -0.5288211    -0.7903128
C           5.8463765     1.1658374     0.7721766
H           6.7695532     1.6013434     1.1448325
C           5.0444407     0.3993488     1.6191007
H           5.3459046     0.2263639     2.6485104
C           3.8571316    -0.1570632     1.1429082
H           3.2692963    -0.7813981     1.8116144
C           3.4594966     0.0465091    -0.1864361
C           4.2835079     0.7992439    -1.0348601
H           3.9762428     0.9275026    -2.0673490
C           5.4643488     1.3617885    -0.5574312
H           6.0895397     1.9513205    -1.2224069
O           2.0966169    -0.6933624    -1.9989670
C          -2.2277038    -3.1736921    -0.6180862
H          -3.1074787    -3.7861097    -0.7942503
C          -1.5021847    -3.3097421     0.5667148
H          -1.8093865    -4.0324333     1.3178557
C          -0.3672047    -2.5314816     0.7860769
H           0.2100209    -2.6527503     1.7003733
C           0.0356185    -1.5868910    -0.1672427
C          -0.6867646    -1.4504619    -1.3595200
H          -0.3569480    -0.7381795    -2.1040720
C          -1.8100536    -2.2480875    -1.5761740
H          -2.3659064    -2.1379811    -2.5034563
26
047_C13H11NO_2-0-21-19 (150,) energy =    -632.0016624
N           1.2312009    -0.8816139     0.0765037
H           1.4515357    -0.7642219     1.0552543
C           2.2058518    -0.4962335    -0.8207114
C           5.8458201     1.1632713     0.7803833
H           6.7679958     1.5920429     1.1631779
C           5.1003349     0.2887444     1.5723808
H           5.4455066     0.0248509     2.5682255
C           3.9145638    -0.2593608     1.0828158
H           3.3722309    -0.9691447     1.7029143
C           3.4619304     0.0611977    -0.2054017
C           4.2297570     0.9226659    -1.0012580
H           3.8812310     1.1415184    -2.0050301
C           5.4089877     1.4761836    -0.5093933
H           5.9904037     2.1501726    -1.1325092
O           2.0646652    -0.5570975    -2.0367265
C          -2.2634919    -3.1493526    -0.5873524
H          -3.1641819    -3.7357920    -0.7447614
C          -1.6037047    -3.1877683     0.6423008
H          -1.9838868    -3.8072030     1.4501919
C          -0.4441179    -2.4419996     0.8385172
H           0.0758133    -2.4873595     1.7935690
C           0.0598705    -1.6296174    -0.1882504
C          -0.5985997    -1.5893204    -1.4256485
H          -0.1962561    -0.9793976    -2.2222885
C          -1.7510740    -2.3526663    -1.6124122
H          -2.2548510    -2.3167531    -2.5747312
26
047_C13H11NO_2-0-21-19 (165,) energy =    -632.0027483
N           1.2846049    -0.9771501     0.0596323