26
047_C13H11NO_21-0-2-9 (-165,) energy =    -632.0025513
N           1.2565107    -0.8866750    -0.3577357
H           1.1190163     0.0843542    -0.1144842
C           2.5669772    -1.3044272    -0.4636282
C           5.6312359     1.4866970     0.7067447
H           6.4192222     2.1784478     0.9919328
C           4.3579144     1.6111321     1.2642677
H           4.1543531     2.3906755     1.9932303
C           3.3442266     0.7257022     0.8967742
H           2.3708763     0.8138089     1.3729979
C           3.5958398    -0.2946890    -0.0318878
C           4.8839051    -0.4248613    -0.5699254
H           5.0705864    -1.2341011    -1.2680907
C           5.8928199     0.4641684    -0.2092506
H           6.8849919     0.3594102    -0.6395911
O           2.8959101    -2.4127486    -0.8724966
C          -2.3614009    -3.0537148    -0.4254330
H          -3.3016686    -3.5973505    -0.4366040
C          -1.1641598    -3.7033105    -0.7284330
H          -1.1701233    -4.7608880    -0.9790383
C           0.0530041    -3.0216589    -0.7240491
H           0.9781764    -3.5234133    -0.9694635
C           0.0741599    -1.6564879    -0.3988146
C          -1.1296815    -0.9996407    -0.0963930
H          -1.1173750     0.0600024     0.1532009
C          -2.3359532    -1.6937532    -0.1107723
H          -3.2567519    -1.1678212     0.1268590
26
047_C13H11NO_21-0-2-9 (-150,) energy =    -632.0003591
N           1.2386979    -0.8269169    -0.6545712
H           1.1064751     0.1431275    -0.4017622
C           2.5537161    -1.2578595    -0.6745950
C           5.5706413     1.4150730     0.8410046
H           6.3477877     2.0750804     1.2168186
C           4.2562750     1.5592934     1.2870540
H           4.0087366     2.3227596     2.0193680
C           3.2567282     0.7147395     0.8027073
H           2.2470841     0.8175135     1.1921045
C           3.5641799    -0.2851973    -0.1312262
C           4.8915698    -0.4347375    -0.5583982
H           5.1190955    -1.2272560    -1.2636531
C           5.8867485     0.4134620    -0.0811561
H           6.9103542     0.2938125    -0.4253222
O           2.8916571    -2.3649322    -1.0771806
C          -2.3188134    -3.0553934    -0.2250774
H          -3.2417887    -3.6160679    -0.1088868
C          -1.1474118    -3.6965402    -0.6305016
H          -1.1563862    -4.7641437    -0.8340780
C           0.0452800    -2.9916196    -0.7928125
H           0.9493334    -3.4854432    -1.1210142
C           0.0712600    -1.6143618    -0.5261020
C          -1.1066681    -0.9653708    -0.1239745
H          -1.0919396     0.1045217     0.0769747
C          -2.2910607    -1.6820151     0.0238378
H          -3.1926130    -1.1627999     0.3378509
26
047_C13H11NO_21-0-2-9 (-135,) energy =    -631.9966461
N           1.2375571    -0.7806584    -0.9516092
H           1.1154314     0.1921139    -0.6998887
C           2.5615986    -1.2079119    -0.9144357
C           5.4828698     1.3227652     0.9808495
H           6.2359450     1.9454444     1.4561988
C           4.1378403     1.4718552     1.3210176
H           3.8415128     2.2015933     2.0693827
C           3.1690486     0.6758737     0.7086801
H           2.1314718     0.7805631     1.0144512
C           3.5390870    -0.2813637    -0.2470283
C           4.8957181    -0.4355223    -0.5693749
H           5.1694911    -1.1941848    -1.2951814
C           5.8604144     0.3646499     0.0354872
H           6.9076059     0.2418799    -0.2268454
O           2.9147927    -2.2994175    -1.3415625
C          -2.2159007    -3.0285473    -0.0280021
H          -3.1100236    -3.5955277     0.2144104
C          -1.0761052    -3.6754755    -0.5082544
H          -1.0811443    -4.7538297    -0.6440214
C           0.0768271    -2.9614661    -0.8341117
H           0.9543237    -3.4595345    -1.2243335
C           0.0988997    -1.5707514    -0.6540287
C          -1.0474625    -0.9158443    -0.1793619
H          -1.0376345     0.1648790    -0.0484569
C          -2.1952182    -1.6417723     0.1295265
H          -3.0732864    -1.1183953     0.4984757
26
047_C13H11NO_21-0-2-9 (-120,) energy =    -631.9916811
N           1.2223525    -0.7505377    -1.2333660
H           1.1062841     0.2297712    -1.0034182
C           2.5611809    -1.1617007    -1.1596941
C           5.3453593     1.2031063     1.1126530
H           6.0628446     1.7834699     1.6864276
C           3.9787224     1.3491367     1.3536149
H           3.6295904     2.0337381     2.1215640
C           3.0552355     0.6087241     0.6146930
H           1.9970749     0.7086408     0.8395485
C           3.4936638    -0.2913594    -0.3673167
C           4.8707715    -0.4423873    -0.5916332
H           5.1955165    -1.1556614    -1.3420700
C           5.7903221     0.3033830     0.1392639
H           6.8542017     0.1840864    -0.0461673
O           2.9375315    -2.2226270    -1.6355626
C          -2.0848147    -2.9739376     0.1740089
H          -2.9395209    -3.5362729     0.5385448
C          -0.9812238    -3.6351986    -0.3684152
H          -0.9754967    -4.7202911    -0.4304533
C           0.1182276    -2.9261374    -0.8507847
H           0.9649011    -3.4366397    -1.2921942
C           0.1275966    -1.5265908    -0.7669167
C          -0.9821504    -0.8578841    -0.2304967
H          -0.9844804     0.2293738    -0.1753753
C          -2.0797984    -1.5796645     0.2340780
H          -2.9307999    -1.0457590     0.6486556
26
047_C13H11NO_21-0-2-9 (-105,) energy =    -631.9860668
N           1.2103116    -0.7166587    -1.4959724
H           1.0922925     0.2715295    -1.2954387
C           2.5696411    -1.1025066    -1.3977862
C           5.1897931     1.0603965     1.2363157
H           5.8650842     1.5906365     1.9024119
C           3.8096177     1.2021421     1.3856055
H           3.4077009     1.8333951     2.1731454
C           2.9403965     0.5271434     0.5279604
H           1.8687757     0.6216716     0.6764214
C           3.4480501    -0.3047513    -0.4807041
C           4.8378077    -0.4515260    -0.6145942
H           5.2145295    -1.1101087    -1.3903187
C           5.7031299     0.2302145     0.2348641
H           6.7774434     0.1155582     0.1203117
O           2.9804763    -2.1086941    -1.9507809
C          -1.9082155    -2.8883726     0.3619743
H          -2.7135108    -3.4399719     0.8381995
C          -0.8314238    -3.5648451    -0.2155269
H          -0.7974831    -4.6509645    -0.1930183
C           0.2030552    -2.8692381    -0.8392101
H           1.0258494    -3.3951357    -1.3092197
C           0.1769741    -1.4677695    -0.8679401
C          -0.9055686    -0.7849996    -0.2956603
H          -0.9380294     0.3026713    -0.3284778
C          -1.9407298    -1.4943655     0.3116740
H          -2.7723663    -0.9495972     0.7508162
26
047_C13H11NO_21-0-2-9 (-90,) energy =    -631.9854945
N           0.9779785    -0.1521942    -1.3342221
H           0.5700979     0.1349272    -2.2228146
C           2.3433237    -0.4788448    -1.6321506
C           5.3031284     0.3521795     1.3511377
H           6.0647756     0.5675447     2.0959481
C           3.9807503     0.7429421     1.5730318
H           3.7131895     1.2654968     2.4871779
C           3.0018180     0.4692048     0.6188498
H           1.9749147     0.7811783     0.7756279
C           3.3450064    -0.1976060    -0.5668488
C           4.6764573    -0.5866110    -0.7846859
H           4.9235773    -1.0956854    -1.7105756
C           5.6501439    -0.3126649     0.1705522
H           6.6793752    -0.6149496    -0.0017535
O           2.6649576    -0.7924204    -2.7650650
C          -1.7089879    -2.8760288     0.4901734
H          -2.4078935    -3.5632892     0.9576359
C          -0.3392258    -2.9858333     0.7311778
H           0.0370600    -3.7652049     1.3886993
C           0.5668151    -2.1109858     0.1315940
H           1.6285596    -2.2188648     0.3271782
C           0.1048615    -1.1026821    -0.7264992
C          -1.2728314    -0.9907260    -0.9665426
H          -1.6390908    -0.2066642    -1.6257101
C          -2.1678021    -1.8720440    -0.3648834
H          -3.2306497    -1.7706188    -0.5681346
26
047_C13H11NO_21-0-2-9 (-75,) energy =    -631.9897135
N           1.0056915    -0.2407298    -1.5567636
H           0.5905218    -0.0498062    -2.4666951
C           2.3891171    -0.4565277    -1.7778596
C           5.1395688     0.2972692     1.4242235
H           5.8495829     0.4951411     2.2229282
C           3.8049821     0.6843022     1.5660549
H           3.4767782     1.1879285     2.4710802
C           2.8909567     0.4309878     0.5444533
H           1.8565434     0.7413388     0.6454756
C           3.3114940    -0.2090062    -0.6307655
C           4.6549477    -0.5892146    -0.7700616
H           4.9645965    -1.0711470    -1.6916913
C           5.5638056    -0.3396918     0.2542907
H           6.6025499    -0.6378638     0.1421157
O           2.8020841    -0.6525857    -2.9106167
C          -1.5966446    -2.7750305     0.6224503
H          -2.2763701    -3.4157661     1.1763778
C          -0.2192012    -2.9859996     0.6826546
H           0.1815909    -3.7993606     1.2818077
C           0.6623054    -2.1750496    -0.0332975
H           1.7285240    -2.3688764     0.0101688
C           0.1663507    -1.1229841    -0.8153331
C          -1.2191391    -0.9067787    -0.8705534
H          -1.6066648    -0.0848041    -1.4679187
C          -2.0903297    -1.7318877    -0.1642093
H          -3.1604666    -1.5525229    -0.2253494
26
047_C13H11NO_21-0-2-9 (-60,) energy =    -631.9930183
N           1.0263979    -0.3413083    -1.7231232
H           0.6107479    -0.2210734    -2.6437150
C           2.4189624    -0.4250550    -1.8782293
C           4.9913151     0.2505444     1.4902858
H           5.6582837     0.4302096     2.3293767
C           3.6501935     0.6324483     1.5707645
H           3.2740118     1.1155509     2.4683287
C           2.7903635     0.3999696     0.4983146
H           1.7516242     0.7068117     0.5574694
C           3.2719222    -0.2118564    -0.6681678
C           4.6227797    -0.5802403    -0.7480601
H           4.9833541    -1.0325922    -1.6661866
C           5.4768312    -0.3561124     0.3286405
H           6.5211482    -0.6485545     0.2618898
O           2.9031727    -0.5090225    -2.9988828
C          -1.4778726    -2.6927267     0.7490807
H          -2.1333591    -3.2897050     1.3764062
C          -0.1167278    -2.9883894     0.6687414
H           0.2931890    -3.8242606     1.2293473
C           0.7314032    -2.2357901    -0.1442192
H           1.7819227    -2.4952535    -0.2173050
C           0.2210601    -1.1536323    -0.8737751
C          -1.1462958    -0.8524808    -0.7876650
H          -1.5398378    -0.0068284    -1.3461795
C          -1.9887364    -1.6239484     0.0093838
H          -3.0467277    -1.3807637     0.0592731
26
047_C13H11NO_21-0-2-9 (-45,) energy =    -631.9949273
N           1.0429501    -0.4419811    -1.8562573
H           0.6292212    -0.3470159    -2.7791612
C           2.4312065    -0.3676136    -1.9578282
C           4.8791700     0.1946008     1.5254726
H           5.5161875     0.3471557     2.3927259
C           3.5345511     0.5693735     1.5725534
H           3.1256535     1.0213282     2.4720722
C           2.7122055     0.3687848     0.4646549
H           1.6703734     0.6687987     0.5023147
C           3.2350337    -0.2015566    -0.7048633
C           4.5908180    -0.5554972    -0.7530131
H           4.9871890    -0.9677358    -1.6752919
C           5.4064563    -0.3682773     0.3603407
H           6.4541223    -0.6533195     0.3181658
O           2.9566176    -0.3196237    -3.0635445
C          -1.4024518    -2.6403750     0.8018798
H          -2.0429775    -3.2013788     1.4761724
C          -0.0518566    -2.9692416     0.6762721
H           0.3632387    -3.7949947     1.2478962
C           0.7756093    -2.2637711    -0.1971148
H           1.8164910    -2.5473373    -0.3078302
C           0.2576987    -1.1932523    -0.9388791
C          -1.0984565    -0.8607059    -0.8095422
H          -1.4971729    -0.0262204    -1.3807875
C          -1.9229596    -1.5871267     0.0473521
H          -2.9729581    -1.3202912     0.1322637
26
047_C13H11NO_21-0-2-9 (-30,) energy =    -631.9955608
N           1.0649926    -0.5433574    -1.9257754
H           0.6403863    -0.4343960    -2.8408635
C           2.4315641    -0.3119911    -1.9894248
C           4.8403746     0.1383929     1.5395098
H           5.4689590     0.2648458     2.4170489
C           3.4923061     0.4997333     1.5879189
H           3.0719202     0.9163712     2.4991277
C           2.6805254     0.3302599     0.4668268
H           1.6355270     0.6187505     0.5090299
C           3.2174796    -0.1931195    -0.7179294
C           4.5778521    -0.5279212    -0.7682369
H           4.9878379    -0.8974470    -1.7025788
C           5.3821204    -0.3761311     0.3589118
H           6.4328968    -0.6491989     0.3146352
O           2.9628445    -0.1359614    -3.0803127
C          -1.3702427    -2.5788596     0.8622548
H          -2.0079162    -3.1016626     1.5692203
C          -0.0252698    -2.9306083     0.7331356
H           0.3873604    -3.7359571     1.3347918
C           0.7973808    -2.2749592    -0.1818478
H           1.8330774    -2.5750308    -0.2970524
C           0.2823123    -1.2296781    -0.9612931
C          -1.0681829    -0.8763155    -0.8307604
H          -1.4657029    -0.0642962    -1.4343401
C          -1.8892357    -1.5542243     0.0688188
H          -2.9349343    -1.2716918     0.1554982
26
047_C13H11NO_21-0-2-9 (-15,) energy =    -631.9952568
N           1.0987724    -0.6480317    -1.9787742
H           0.6628788    -0.5098974    -2.8839282
C           2.4283567    -0.2620375    -2.0039416
C           4.8272089     0.0995755     1.5434700
H           5.4537535     0.2053435     2.4251815
C           3.4726781     0.4329338     1.6049408
H           3.0447411     0.8078623     2.5306515
C           2.6631476     0.2884295     0.4784266
H           1.6127521     0.5544131     0.5331892
C           3.2087796    -0.1805501    -0.7248407
C           4.5761484    -0.4830008    -0.7882194
H           4.9945433    -0.8056659    -1.7360954
C           5.3778796    -0.3591867     0.3442400
H           6.4339118    -0.6090699     0.2891761
O           2.9458607     0.0325184    -3.0761183
C          -1.3623524    -2.5260553     0.8926343
H          -2.0059267    -3.0117592     1.6204369
C          -0.0211846    -2.8984005     0.7789597
H           0.3819360    -3.6827188     1.4138839
C           0.8080473    -2.2908506    -0.1624185
H           1.8404164    -2.6057322    -0.2674385
C           0.3046955    -1.2723614    -0.9840621
C          -1.0420346    -0.9000951    -0.8709554
H          -1.4317539    -0.1112099    -1.5093986
C          -1.8704488    -1.5305253     0.0565736
H          -2.9131743    -1.2338117     0.1305018
26
047_C13H11NO_21-0-2-9 (0,) energy =    -631.9942519
N           1.5928177    -2.3642532     1.3347558
H           1.3655252    -2.9903152     2.0997156
C           2.8877036    -1.8889776     1.4624882
C           4.5134627     1.2551711    -0.9769532
H           4.9490397     2.0500129    -1.5766476
C           3.2034801     1.3711044    -0.5084605
H           2.6203534     2.2599676    -0.7332857
C           2.6371536     0.3478383     0.2519948
H           1.6200336     0.4492776     0.6154977
C           3.3855123    -0.7966177     0.5606771
C           4.7118313    -0.8908669     0.1163043
H           5.2957912    -1.7610903     0.3980267
C           5.2669892     0.1213015    -0.6633627
H           6.2909895     0.0320567    -1.0157123
O           3.6256964    -2.3919269     2.3027224
C          -1.6485566    -1.4550578    -1.2139362
H          -2.4894465    -1.2339589    -1.8649821
C          -0.3734750    -1.6463702    -1.7510972
H          -0.2197702    -1.5824674    -2.8248976
C           0.7077412    -1.9453205    -0.9239738
H           1.6904370    -2.1241490    -1.3463876
C           0.5261260    -2.0233888     0.4639196
C          -0.7539773    -1.8351593     1.0024075
H          -0.8948990    -1.8996156     2.0784970
C          -1.8349933    -1.5601234     0.1652339
H          -2.8225835    -1.4191775     0.5959877
26
047_C13H11NO_21-0-2-9 (15,) energy =    -631.9952568
N           1.5501108    -2.2697225     1.4069213
H           1.3319901    -2.9191172     2.1546499
C           2.8879516    -1.9134819     1.4332587
C           4.5083079     1.2721603    -0.9532693
H           4.9421657     2.0770108    -1.5407583
C           3.2137744     1.3975339    -0.4452093
H           2.6416798     2.3031475    -0.6274557
C           2.6497037     0.3623901     0.3001477
H           1.6451184     0.4697943     0.6955585
C           3.3849349    -0.8041513     0.5533769
C           4.6955794    -0.9101234     0.0674019
H           5.2685438    -1.8005268     0.3051616
C           5.2486521     0.1156907    -0.6957387
H           6.2604627     0.0188209    -1.0798397
O           3.6480111    -2.4980099     2.1979632
C          -1.6442283    -1.5007805    -1.2452518
H          -2.4741038    -1.3139690    -1.9206783
C          -0.3557391    -1.6922306    -1.7486767
H          -0.1799923    -1.6631142    -2.8206167
C           0.7123919    -1.9472960    -0.8902051
H           1.7049537    -2.1260276    -1.2887546
C           0.5031325    -1.9809429     0.4957458
C          -0.7906508    -1.7905251     1.0006449
H          -0.9521528    -1.8181259     2.0753475
C          -1.8574562    -1.5605112     0.1328649
H          -2.8554196    -1.4181637     0.5385582
26
047_C13H11NO_21-0-2-9 (30,) energy =    -631.9955609
N           1.5170378    -2.1660154     1.4622159
H           1.3089325    -2.8404209     2.1912005
C           2.8827804    -1.9337181     1.3855067
C           4.5259973     1.2950350    -0.9239490
H           4.9648812     2.1100054    -1.4934996
C           3.2434277     1.4287740    -0.3879191
H           2.6860945     2.3504622    -0.5310397
C           2.6734147     0.3817308     0.3355049
H           1.6790795     0.4943085     0.7546149
C           3.3906163    -0.8059699     0.5376976
C           4.6883193    -0.9231234     0.0205146
H           5.2453541    -1.8336951     0.2159726
C           5.2479040     0.1166106    -0.7185185
H           6.2499050     0.0127924    -1.1257939
O           3.6477847    -2.6064135     2.0678048
C          -1.6510035    -1.5583388    -1.2656034
H          -2.4746244    -1.4104539    -1.9580838
C          -0.3534029    -1.7482008    -1.7447027
H          -0.1635904    -1.7570017    -2.8146253
C           0.7077885    -1.9531683    -0.8639728
H           1.7072822    -2.1299938    -1.2457154
C           0.4810357    -1.9386115     0.5194340
C          -0.8220613    -1.7471851     1.0000952
H          -0.9960853    -1.7341427     2.0730590
C          -1.8807759    -1.5679913     0.1113074
H          -2.8858030    -1.4251479     0.4990446
26
047_C13H11NO_21-0-2-9 (45,) energy =    -631.9949273
N           1.4915407    -2.0505740     1.5024581
H           1.2941939    -2.7387805     2.2231298
C           2.8699470    -1.9447966     1.3238228
C           4.5725455     1.3237330    -0.8806881
H           5.0245262     2.1481986    -1.4258146
C           3.2950117     1.4653123    -0.3343053
H           2.7550033     2.4015633    -0.4457480
C           2.7086916     0.4076149     0.3595482
H           1.7195962     0.5243287     0.7895589
C           3.4040382    -0.7995727     0.5195574
C           4.6948270    -0.9276617    -0.0126093
H           5.2316180    -1.8574098     0.1457339
C           5.2720794     0.1250810    -0.7185745
H           6.2693629     0.0149740    -1.1356282
O           3.6189884    -2.7106460     1.9182810
C          -1.6759986    -1.6468244    -1.2692380
H          -2.4994897    -1.5485059    -1.9705688
C          -0.3712824    -1.8189222    -1.7341422
H          -0.1748688    -1.8634496    -2.8020213
C           0.6910197    -1.9599165    -0.8414899
H           1.6963311    -2.1223169    -1.2144213
C           0.4561906    -1.9007403     0.5390208
C          -0.8543316    -1.7239955     1.0056739
H          -1.0339939    -1.6720287     2.0765069
C          -1.9124637    -1.6086445     0.1063344
H          -2.9229381    -1.4775399     0.4840399
26
047_C13H11NO_21-0-2-9 (60,) energy =    -631.9930183
N           1.4578734    -1.8862512     1.5024277
H           1.2608092    -2.5568437     2.2414688
C           2.8352346    -1.9213891     1.2341963
C           4.6948210     1.3432482    -0.8405101
H           5.1846923     2.1662540    -1.3542104
C           3.4143827     1.5153108    -0.3096555
H           2.9098427     2.4730364    -0.4030554
C           2.7808117     0.4608894     0.3463064
H           1.7908993     0.5987251     0.7678575
C           3.4310670    -0.7743406     0.4815297
C           4.7222571    -0.9364217    -0.0414072
H           5.2191837    -1.8919480     0.0913531
C           5.3484419     0.1153950    -0.7051057
H           6.3468839    -0.0185847    -1.1122159
O           3.5335857    -2.7864362     1.7454437
C          -1.7436304    -1.7279227    -1.2611996
H          -2.5755093    -1.6899078    -1.9584193
C          -0.4347446    -1.8432034    -1.7303632
H          -0.2420962    -1.9031009    -2.7982068
C           0.6398142    -1.9059377    -0.8426555
H           1.6490698    -2.0232419    -1.2219930
C           0.4109796    -1.8292810     0.5377524
C          -0.9045869    -1.7067045     1.0089526
H          -1.0807403    -1.6373900     2.0795168
C          -1.9722294    -1.6675791     0.1152165
H          -2.9855521    -1.5791227     0.4977426
26
047_C13H11NO_21-0-2-9 (75,) energy =    -631.9897135
N           1.4131556    -1.6969271     1.4830801
H           1.2217027    -2.3144686     2.2697066
C           2.7817566    -1.8673148     1.1556391
C           4.8577244     1.3368063    -0.7964103
H           5.3998556     2.1446228    -1.2808986
C           3.5712229     1.5598097    -0.3002086
H           3.1138790     2.5409898    -0.3926755
C           2.8720737     0.5258362     0.3205731
H           1.8778950     0.6984265     0.7185125
C           3.4619273    -0.7399571     0.4525718
C           4.7572246    -0.9558161    -0.0418366
H           5.2023090    -1.9377954     0.0812847
C           5.4503747     0.0773541    -0.6660838
H           6.4523901    -0.0956385    -1.0488608
O           3.4017081    -2.8197379     1.6036009
C          -1.8409333    -1.8889117    -1.2220732
H          -2.6854512    -1.9373173    -1.9031393
C          -0.5370190    -1.8411014    -1.7150281
H          -0.3590217    -1.8580613    -2.7870376
C           0.5556004    -1.7891555    -0.8485609
H           1.5623732    -1.7739111    -1.2516196
C           0.3486816    -1.7704109     0.5375220
C          -0.9635574    -1.8118694     1.0331898
H          -1.1281378    -1.7867709     2.1078744
C          -2.0456037    -1.8791490     0.1594912
H          -3.0539664    -1.9175041     0.5630213
26
047_C13H11NO_21-0-2-9 (90,) energy =    -631.9854945
N           1.3485039    -1.4728396     1.4219556
H           1.1696885    -2.0122907     2.2677803
C           2.7041605    -1.7742314     1.0600335
C           5.0378497     1.3316647    -0.7450581
H           5.6433667     2.1143219    -1.1945331
C           3.7467038     1.6196323    -0.2971374
H           3.3483512     2.6257747    -0.3936131
C           2.9681074     0.6180271     0.2810302
H           1.9696282     0.8351421     0.6448123
C           3.4821963    -0.6804160     0.4153939
C           4.7814869    -0.9632655    -0.0355811
H           5.1638629    -1.9718742     0.0827139
C           5.5547841     0.0387663    -0.6131060
H           6.5598163    -0.1838834    -0.9605529
O           3.2230936    -2.8102879     1.4376154
C          -1.9327524    -2.0654514    -1.1952272
H          -2.7825235    -2.2115574    -1.8554234
C          -0.6638884    -1.8155866    -1.7186198
H          -0.5184731    -1.7686394    -2.7947219
C           0.4346918    -1.6314639    -0.8789837
H           1.4139945    -1.4454958    -1.3074393
C           0.2722938    -1.6954557     0.5123944
C          -1.0042556    -1.9439987     1.0385504
H          -1.1390886    -1.9882477     2.1170969
C          -2.0931917    -2.1295452     0.1903300
H          -3.0726230    -2.3255944     0.6187246
26
047_C13H11NO_21-0-2-9 (105,) energy =    -631.9860668
N           1.5494768    -1.9320595     1.0378465
H           1.4958268    -1.1631855     1.6986132
C           2.8094297    -1.9677767     0.3916850
C           5.0259751     1.6815620    -0.1086967
H           5.5969390     2.5951692    -0.2507232
C           3.6679081     1.7502695     0.2046793
H           3.1769586     2.7150027     0.2968681
C           2.9336180     0.5789921     0.3934607
H           1.8706731     0.6473306     0.6051824
C           3.5529946    -0.6721816     0.2589873
C           4.9165950    -0.7312711    -0.0696377
H           5.3775292    -1.7068412    -0.1845132
C           5.6495987     0.4375844    -0.2474545
H           6.7059076     0.3826779    -0.4956941
O           3.2201635    -2.9895623    -0.1320127
C          -2.1005539    -2.1911207    -1.0842664
H          -3.0413768    -2.2549400    -1.6230914
C          -1.0028961    -2.9571435    -1.4829712
H          -1.0882246    -3.6253707    -2.3359094
C           0.2068536    -2.8925575    -0.7935286
H           1.0507467    -3.5055969    -1.0876328
C           0.3340692    -2.0283237     0.3030623
C          -0.7674035    -1.2628672     0.7109968
H          -0.6783033    -0.6014183     1.5710562
C          -1.9758041    -1.3487891     0.0210676
H          -2.8197811    -0.7483014     0.3502416
26
047_C13H11NO_21-0-2-9 (120,) energy =    -631.9916819
N           1.5023848    -1.7517203     0.8509029
H           1.4416833    -0.9634694     1.4852308
C           2.7442893    -1.8233505     0.2031510
C           5.2184075     1.6926746     0.0427923
H           5.8554968     2.5711713    -0.0137047
C           3.8548062     1.8357920     0.3019496
H           3.4254671     2.8246605     0.4365518
C           3.0355097     0.7089395     0.3799242
H           1.9702774     0.8408366     0.5476332
C           3.5742074    -0.5719283     0.1905841
C           4.9439578    -0.7042856    -0.0846857
H           5.3424701    -1.7004410    -0.2465828
C           5.7617888     0.4193227    -0.1528352
H           6.8222709     0.3058348    -0.3600756
O           3.0997728    -2.8234204    -0.4026727
C          -2.2410611    -2.4070691    -0.9983121
H          -3.2072986    -2.5681509    -1.4674214
C          -1.1233944    -3.1348381    -1.4113630
H          -1.2182346    -3.8705888    -2.2057066
C           0.1209660    -2.9470961    -0.8108991
H           0.9836236    -3.5266896    -1.1145658
C           0.2586875    -1.9935178     0.2076859
C          -0.8629125    -1.2662468     0.6313939
H          -0.7632047    -0.5340118     1.4308193
C          -2.1031138    -1.4754803     0.0315990
H          -2.9617067    -0.9019331     0.3707221
26
047_C13H11NO_21-0-2-9 (135,) energy =    -631.9966460
N           1.4278997    -1.5552868     0.6506076
H           1.3587580    -0.7565912     1.2685592
C           2.6626127    -1.6706430     0.0186761
C           5.3741507     1.6685558     0.1854109
H           6.0728074     2.5003526     0.2136897
C           4.0111054     1.8951282     0.3798596
H           3.6437279     2.9036407     0.5481310
C           3.1130149     0.8276528     0.3478495
H           2.0514190     1.0292393     0.4636217
C           3.5712911    -0.4771740     0.1153813
C           4.9413746    -0.6921344    -0.0962612
H           5.2790395    -1.7038537    -0.2955565
C           5.8375000     0.3718575    -0.0556489
H           6.8974911     0.1931377    -0.2137004
O           2.9802266    -2.6565994    -0.6336559
C          -2.3588539    -2.6041446    -0.8964579
H          -3.3383881    -2.8636412    -1.2874357
C          -1.2184760    -3.2741549    -1.3424534
H          -1.3084549    -4.0633263    -2.0843556
C           0.0455449    -2.9605437    -0.8432924
H           0.9277459    -3.4920535    -1.1742807
C           0.1756814    -1.9374484     0.1071548
C          -0.9690737    -1.2672780     0.5640291
H          -0.8731425    -0.4798700     1.3096692
C          -2.2257824    -1.6009834     0.0649654
H          -3.1014434    -1.0697203     0.4283183
26
047_C13H11NO_21-0-2-9 (150,) energy =    -632.0003592
N           1.3729541    -1.3542339     0.4313027
H           1.2960082    -0.5556434     1.0466133
C           2.6109129    -1.5173834    -0.1655712
C           5.5080710     1.6320622     0.3154606
H           6.2544191     2.4139808     0.4266135
C           4.1519855     1.9397493     0.4324320
H           3.8384014     2.9624857     0.6224721
C           3.1925831     0.9361516     0.2935316
H           2.1403624     1.2034313     0.3485005
C           3.5817594    -0.3856459     0.0327628
C           4.9460259    -0.6809915    -0.1025844
H           5.2314723    -1.7034007    -0.3271621
C           5.9030652     0.3190510     0.0443782
H           6.9577246     0.0772002    -0.0543627
O           2.9083106    -2.4974751    -0.8385930
C          -2.4079401    -2.7845649    -0.7784209
H          -3.3880611    -3.1409752    -1.0818498
C          -1.2510125    -3.3847855    -1.2772420
H          -1.3283756    -4.2162664    -1.9729097
C           0.0162050    -2.9460947    -0.8931165
H           0.9125043    -3.4203421    -1.2680579
C           0.1290265    -1.8689408    -0.0011840
C          -1.0327170    -1.2670777     0.5073927
H          -0.9490220    -0.4359091     1.2055242
C          -2.2899267    -1.7233386     0.1209272
H          -3.1780839    -1.2436553     0.5235078
26
047_C13H11NO_21-0-2-9 (165,) energy =    -632.0025509
N           1.3112387    -1.1656823     0.2053731