15
185_C5H10_2-0-8-9 (-165,) energy =    -196.5365680
C           1.3626869    -0.6209281    -0.4166162
H           1.0908527     0.1637491     0.2910737
C           2.6650503    -0.8466719    -0.6223533
C           3.2667457    -1.8825151    -1.5305575
H           3.9521742    -1.4223000    -2.2551257
H           2.5096903    -2.4405262    -2.0891875
H           3.8605242    -2.6088781    -0.9582393
H           3.3813187    -0.2263147    -0.0825815
C           0.2001260    -1.3682491    -1.0348690
C          -1.1335362    -0.6279799    -0.8733501
H          -1.1023444     0.3549864    -1.3581927
H          -1.3683682    -0.4675731     0.1858723
H          -1.9596016    -1.1950605    -1.3163078
H           0.1103035    -2.3619915    -0.5700344
H           0.3888623    -1.5557203    -2.1000673
15
185_C5H10_2-0-8-9 (-150,) energy =    -196.5372509
C           1.3538940    -0.7051124    -0.3177516
H           1.0964917     0.0131268     0.4628381
C           2.6514121    -0.8683334    -0.6014945
C           3.2562010    -1.8055563    -1.6095072
H           3.8944647    -1.2618405    -2.3190632
H           2.5030388    -2.3526681    -2.1835304
H           3.9002060    -2.5469160    -1.1162948
H           3.3689688    -0.2624858    -0.0467665
C           0.1778065    -1.4389195    -0.9169379
C          -1.0968679    -0.5836666    -0.9532551
H          -0.9548922     0.3134333    -1.5671226
H          -1.3781977    -0.2544902     0.0544341
H          -1.9404240    -1.1465117    -1.3681104
H          -0.0267913    -2.3424997    -0.3212004
H           0.4144779    -1.7938442    -1.9270427
15
185_C5H10_2-0-8-9 (-135,) energy =    -196.5379163
C           1.3473276    -0.7996760    -0.2143592
H           1.1088499    -0.1414184     0.6234699
C           2.6333015    -0.8967620    -0.5726185
C           3.2257658    -1.7340453    -1.6719860
H           3.8036795    -1.1125084    -2.3692338
H           2.4707957    -2.2742558    -2.2498262
H           3.9253470    -2.4763406    -1.2633054
H           3.3562656    -0.3061942    -0.0082508
C           0.1583072    -1.5116943    -0.8063747
C          -1.0358136    -0.5718903    -1.0384801
H          -0.7814928     0.2210312    -1.7510637
H          -1.3454743    -0.0901088    -0.1030932
H          -1.8988670    -1.1194834    -1.4336962
H          -0.1577784    -2.3118327    -0.1186627
H           0.4257229    -2.0083517    -1.7456399
15
185_C5H10_2-0-8-9 (-120,) energy =    -196.5381669
C           1.3451976    -0.8873191    -0.1119404
H           1.1320725    -0.2856319     0.7738543
C           2.6123554    -0.9182637    -0.5423584
C           3.1710701    -1.6585747    -1.7258754
H           3.6700743    -0.9670461    -2.4182725
H           2.4073046    -2.2018877    -2.2889260
H           3.9322385    -2.3846453    -1.4086658
H           3.3475203    -0.3459566     0.0251797
C           0.1411350    -1.5699650    -0.7054417
C          -0.9514889    -0.5715193    -1.1265864
H          -0.5848272     0.1044908    -1.9070280
H          -1.2717839     0.0448734    -0.2778535
H          -1.8346854    -1.0927969    -1.5134502
H          -0.2823587    -2.2591389     0.0408681
H           0.4234828    -2.1873909    -1.5650893
15
185_C5H10_2-0-8-9 (-105,) energy =    -196.5378972
C           1.3477327    -0.9697781    -0.0057602
H           1.1692752    -0.4295422     0.9256807
C           2.5894646    -0.9402173    -0.5050857
C           3.0907776    -1.5814732    -1.7694348
H           3.4990141    -0.8254330    -2.4540721
H           2.3120975    -2.1301727    -2.3064181
H           3.9095107    -2.2820411    -1.5556695
H           3.3456198    -0.3947748     0.0612442
C           0.1243853    -1.6147483    -0.6047338
C          -0.8464415    -0.5843732    -1.2106265
H          -0.3717509    -0.0396355    -2.0340397
H          -1.1588250     0.1537151    -0.4621386
H          -1.7488852    -1.0723380    -1.5972469
H          -0.4009687    -2.1819000     0.1767819
H           0.4039664    -2.3425132    -1.3748684
15
185_C5H10_2-0-8-9 (-90,) energy =    -196.5371980
C           1.3639261    -1.0392285     0.0978055
H           1.2287850    -0.5729666     1.0746650
C           2.5764547    -0.9541201    -0.4630480
C           3.0034918    -1.4925151    -1.8004633
H           3.3430126    -0.6807160    -2.4583887
H           2.2004497    -2.0250352    -2.3180322
H           3.8520117    -2.1819705    -1.6938726
H           3.3606885    -0.4484947     0.1018070
C           0.1183984    -1.6408035    -0.5079521
C          -0.7154637    -0.6134854    -1.2966241
H          -0.1431172    -0.2143834    -2.1410071
H          -1.0030667     0.2337414    -0.6629224
H          -1.6334251    -1.0677910    -1.6882544
H          -0.5005539    -2.0696589     0.2909731
H           0.3769929    -2.4737437    -1.1731902
15
185_C5H10_2-0-8-9 (-75,) energy =    -196.5361260
C           1.3621995    -1.1074922     0.2130432
H           1.2798227    -0.7299845     1.2325018
C           2.5460214    -0.9769401    -0.3978806
C           2.8970070    -1.4119499    -1.7938378
H           3.1620491    -0.5497590    -2.4215611
H           2.0775524    -1.9429557    -2.2870231
H           3.7733081    -2.0740397    -1.7887055
H           3.3626733    -0.5254153     0.1666561
C           0.0849479    -1.6457163    -0.3956004
C          -0.5992512    -0.6532638    -1.3542332
H           0.0530127    -0.4100870    -2.1994381
H          -0.8406577     0.2862025    -0.8437123
H          -1.5319844    -1.0709126    -1.7519877
H          -0.6133114    -1.9131894     0.4066346
H           0.2881248    -2.5771073    -0.9415515
15
185_C5H10_2-0-8-9 (-60,) energy =    -196.5344314
C           1.3729614    -1.1826801     0.2466320
H           1.3474129    -0.9168367     1.3035463
C           2.5326385    -0.9977926    -0.3960909
C           2.8401817    -1.3098884    -1.8353275
H           2.9840312    -0.3928600    -2.4241616
H           2.0507456    -1.8950480    -2.3157007
H           3.7746551    -1.8805900    -1.9143017
H           3.3729573    -0.6125125     0.1826123
C           0.0508474    -1.6312672    -0.3462319
C          -0.5109313    -0.7014980    -1.4371940
H           0.1635002    -0.6297826    -2.2951102
H          -0.6593756     0.3129800    -1.0497296
H          -1.4786099    -1.0695855    -1.7986428
H          -0.6862702    -1.7233170     0.4597230
H           0.1538814    -2.6417534    -0.7698997
15
185_C5H10_2-0-8-9 (-45,) energy =    -196.5324211
C           1.3362003    -1.2615960     0.3162722
H           1.3548386    -1.1306622     1.3987015
C           2.4923767    -1.0413148    -0.3223618
C           2.8024873    -1.1898867    -1.7885098
H           2.8593778    -0.2151347    -2.2935477
H           2.0637373    -1.7975575    -2.3172270
H           3.7808968    -1.6683085    -1.9214983
H           3.3448941    -0.7527151     0.2938618
C          -0.0301713    -1.6042388    -0.2494554
C          -0.4955934    -0.7856353    -1.4656238
H           0.1199012    -0.9633178    -2.3506485
H          -0.4620077     0.2883106    -1.2494639
H          -1.5291079    -1.0449923    -1.7239765
H          -0.7672792    -1.4819762     0.5532484
H          -0.0649697    -2.6740798    -0.5105224
15
185_C5H10_2-0-8-9 (-30,) energy =    -196.5316248
C           1.3535568    -1.2993355     0.2817307
H           1.4174333    -1.3268895     1.3708846
C           2.5112751    -1.0724888    -0.3527083
C           2.8290584    -1.0046107    -1.8214933
H           3.2334283    -0.0182795    -2.0884893
H           1.9713338    -1.2007826    -2.4646548
H           3.6097785    -1.7359184    -2.0722795
H           3.3820248    -0.9204596     0.2877614
C          -0.0513021    -1.5628311    -0.2232426
C          -0.4900667    -0.9508309    -1.5618724
H          -0.0450597    -1.4581427    -2.4226449
H          -0.2237101     0.1102356    -1.6195908
H          -1.5780321    -1.0306976    -1.6693826
H          -0.7375379    -1.1976523     0.5531697
H          -0.2190924    -2.6513847    -0.2516648
15
185_C5H10_2-0-8-9 (-15,) energy =    -196.5320157
C           1.3314990    -1.3480608     0.2769647
H           1.4174203    -1.4881383     1.3565393
C           2.4870927    -1.1150492    -0.3594688
C           2.7925236    -0.8943998    -1.8164288
H           3.3011763     0.0688820    -1.9603605
H           1.9133235    -0.9079838    -2.4593642
H           3.4863763    -1.6655471    -2.1793835
H           3.3741612    -1.0781494     0.2757229
C          -0.0988278    -1.4984799    -0.1922643
C          -0.4928100    -1.0500281    -1.6039894
H          -0.0496521    -1.6834619    -2.3788416
H          -0.1921388    -0.0143713    -1.7956464
H          -1.5811590    -1.1080487    -1.7209727
H          -0.7261533    -0.9500969     0.5265956
H          -0.3883734    -2.5531605    -0.0578674
15
185_C5H10_2-0-8-9 (0,) energy =    -196.5322349
C           1.3284868    -1.4107702     0.2631692
H           1.4263085    -1.6449447     1.3254981
C           2.4821783    -1.1684543    -0.3733045
C           2.7758342    -0.8168504    -1.8070363
H           3.3054349     0.1444218    -1.8626313
H           1.8899585    -0.7469459    -2.4367608
H           3.4477324    -1.5637466    -2.2523753
H           3.3802744    -1.2338346     0.2438833
C          -0.1184687    -1.4325238    -0.1741018
C          -0.4887720    -1.1313026    -1.6293947
H          -0.0358027    -1.8479301    -2.3224258
H          -0.1812474    -0.1238448    -1.9285293
H          -1.5758842    -1.1943494    -1.7550516
H          -0.6646242    -0.7323440     0.4777038
H          -0.5226549    -2.4221057     0.0918612
15
185_C5H10_2-0-8-9 (15,) energy =    -196.5320158
C           1.3414975    -1.4685973     0.2492248
H           1.4430555    -1.7960354     1.2860265
C           2.4956659    -1.2180856    -0.3831439
C           2.7793750    -0.7368962    -1.7805352
H           3.3192447     0.2199434    -1.7499986
H           1.8871255    -0.5967084    -2.3894540
H           3.4374227    -1.4443931    -2.3036728
H           3.3997054    -1.3839485     0.2058547
C          -0.1106029    -1.3590068    -0.1606581
C          -0.4794295    -1.2106939    -1.6409307
H          -0.0273131    -2.0013890    -2.2493079
H          -0.1687524    -0.2444326    -2.0506179
H          -1.5668985    -1.2791008    -1.7604589
H          -0.5582405    -0.5259330     0.4049130
H          -0.6169684    -2.2553418     0.2281804
15
185_C5H10_2-0-8-9 (30,) energy =    -196.5316246
C           1.2985637    -1.5391668     0.2728905
H           1.3866395    -1.9748873     1.2696277
C           2.4599378    -1.2922729    -0.3471991
C           2.7448087    -0.6709499    -1.6872743
H           3.3965686     0.2051846    -1.5655618
H           1.8500952    -0.3479051    -2.2192505
H           3.2888615    -1.3722105    -2.3352617
H           3.3606192    -1.5722240     0.2022564
C          -0.1431835    -1.2997263    -0.1296965
C          -0.5173343    -1.3336409    -1.6189427
H          -0.0918364    -2.2126792    -2.1153186
H          -0.1788893    -0.4443132    -2.1582524
H          -1.6070255    -1.3802425    -1.7285025
H          -0.4783143    -0.3444226     0.3050715
H          -0.7435513    -2.0629324     0.3842450
15
185_C5H10_2-0-8-9 (45,) energy =    -196.5324210
C           1.3231319    -1.5691136     0.2508829
H           1.3975250    -2.1488635     1.1714830
C           2.4780566    -1.3075496    -0.3743200
C           2.7123599    -0.4950657    -1.6204281
H           3.5971050     0.1417842    -1.4958597
H           1.8692905     0.1560009    -1.8651594
H           2.9073923    -1.1347185    -2.4929267
H           3.3853718    -1.6951897     0.0907841
C          -0.0980994    -1.2362137    -0.1658298
C          -0.4669301    -1.5130612    -1.6331791
H          -0.2559283    -2.5551965    -1.8989687
H           0.0831977    -0.8769523    -2.3306007
H          -1.5364265    -1.3340657    -1.7953622
H          -0.3111336    -0.1785203     0.0574232
H          -0.7797010    -1.8066213     0.4765491
15
185_C5H10_2-0-8-9 (60,) energy =    -196.5344315
C           1.3240855    -1.6426955     0.2424595
H           1.3633286    -2.3415749     1.0781635
C           2.4848045    -1.3510069    -0.3573598
C           2.7087004    -0.4016090    -1.5027712
H           3.5382264     0.2819061    -1.2794858
H           1.8261306     0.2059706    -1.7225849
H           2.9848185    -0.9374663    -2.4219859
H           3.3877074    -1.8156163     0.0406058
C          -0.0646075    -1.1886655    -0.1650797
C          -0.4932978    -1.6264304    -1.5774578
H          -0.4700326    -2.7180016    -1.6736416
H           0.1661806    -1.2149814    -2.3467824
H          -1.5144984    -1.2902978    -1.7935570
H          -0.1330353    -0.0919257    -0.1049216
H          -0.7901779    -1.5695754     0.5628672
15
185_C5H10_2-0-8-9 (75,) energy =    -196.5361260
C           1.3291143    -1.6844996     0.1516000
H           1.3308416    -2.4727397     0.9047715
C           2.5039498    -1.3584249    -0.4007960
C           2.7495288    -0.3159749    -1.4563092
H           3.5119836     0.4025894    -1.1267338
H           1.8458779     0.2457970    -1.7103442
H           3.1304521    -0.7718107    -2.3808459
H           3.3941771    -1.8806358    -0.0482508
C          -0.0305196    -1.1356252    -0.2247508
C          -0.5743191    -1.7075450    -1.5473484
H          -0.6536580    -2.7998692    -1.5021980
H           0.0873020    -1.4601568    -2.3840148
H          -1.5701605    -1.3054175    -1.7692141
H           0.0120043    -0.0409940    -0.3072621
H          -0.7426558    -1.3493322     0.5813995
15
185_C5H10_2-0-8-9 (90,) energy =    -196.5371980
C           1.3350775    -1.7067780     0.0454259
H           1.2963397    -2.5656579     0.7168071
C           2.5336500    -1.3536672    -0.4349627
C           2.8413822    -0.2295637    -1.3850194
H           3.5712394     0.4655435    -0.9481793
H           1.9531040     0.3455453    -1.6616831
H           3.2920918    -0.6125298    -2.3109562
H           3.4001163    -1.9281127    -0.1048321
C          -0.0028353    -1.0998533    -0.3035200
C          -0.6784187    -1.7967966    -1.4995845
H          -0.8141346    -2.8679617    -1.3091291
H          -0.0673605    -1.6973324    -2.4032186
H          -1.6649584    -1.3633989    -1.7028728
H           0.1055871    -0.0320678    -0.5299908
H          -0.6654023    -1.1604599     0.5697662
15
185_C5H10_2-0-8-9 (105,) energy =    -196.5378971
C           1.4183892    -0.1536670    -1.0346633
H           1.2958567     0.9020939    -0.7864163
C           2.6020078    -0.7158049    -0.7604141
C           3.0202210    -2.1425071    -0.9853917
H           3.9035807    -2.1942010    -1.6363620
H           2.2331241    -2.7504253    -1.4400219
H           3.3042616    -2.6191070    -0.0371142
H           3.3718658    -0.0775904    -0.3245168
C           0.1873928    -0.8160016    -1.5979493
C          -0.9017004    -1.0366189    -0.5318691
H          -1.1891058    -0.0907357    -0.0572069
H          -0.5438492    -1.7070997     0.2570936
H          -1.8030390    -1.4772810    -0.9739186
H           0.4386338    -1.7770391    -2.0607612
H          -0.2231416    -0.1871177    -2.4006707
15
185_C5H10_2-0-8-9 (120,) energy =    -196.5381670
C           1.3969611    -0.2323929    -0.9334653
H           1.2315204     0.7997411    -0.6181662
C           2.6170317    -0.7466041    -0.7360922
C           3.1058812    -2.1283789    -1.0716902
H           3.9510137    -2.0844710    -1.7722554
H           2.3328188    -2.7571577    -1.5217384
H           3.4735752    -2.6408460    -0.1722298
H           3.3651498    -0.0977565    -0.2784655
C           0.1871832    -0.9025776    -1.5295557
C          -1.0008924    -0.9462568    -0.5525546
H          -1.2745832     0.0616664    -0.2178078
H          -0.7545310    -1.5352846     0.3378875
H          -1.8836910    -1.3931140    -1.0242000
H           0.4251192    -1.9189156    -1.8618408
H          -0.1196913    -0.3497088    -2.4303361
15
185_C5H10_2-0-8-9 (135,) energy =    -196.5379159
C           1.3916000    -0.3097332    -0.8228805
H           1.1922564     0.6945912    -0.4437908
C           2.6419810    -0.7726089    -0.7056121
C           3.1803186    -2.1036194    -1.1519382
H           3.9729599    -1.9725992    -1.9014846
H           2.4133608    -2.7478277    -1.5906013
H           3.6341838    -2.6441862    -0.3102521
H           3.3755002    -0.1190890    -0.2314327
C           0.1996223    -0.9898851    -1.4458208
C          -1.0682485    -0.8619082    -0.5861267
H          -1.3147499     0.1908301    -0.4018540
H          -0.9353214    -1.3462626     0.3879922
H          -1.9297029    -1.3248076    -1.0806653
H           0.4086463    -2.0476208    -1.6405891
H           0.0008551    -0.5334190    -2.4282670
15
185_C5H10_2-0-8-9 (150,) energy =    -196.5372509
C           1.3813076    -0.3829944    -0.7151565
H           1.1518156     0.5843013    -0.2644720
C           2.6547025    -0.7927683    -0.6797547
C           3.2224195    -2.0640062    -1.2471158
H           3.9562187    -1.8462335    -2.0356100
H           2.4561053    -2.7133379    -1.6797994
H           3.7552733    -2.6358974    -0.4754341
H           3.3801552    -0.1426140    -0.1891638
C           0.2043480    -1.0789646    -1.3563088
C          -1.1205793    -0.7826149    -0.6391485
H          -1.3274921     0.2943821    -0.6249772
H          -1.0944324    -1.1285295     0.4007762
H          -1.9610881    -1.2773639    -1.1384026
H           0.3685832    -2.1622820    -1.3979670
H           0.1144998    -0.7481906    -2.4030880
15
185_C5H10_2-0-8-9 (165,) energy =    -196.5365681
C           1.3754049    -0.4547556    -0.6063765
H           1.1203122     0.4623339    -0.0731794
C           2.6648658    -0.8078171    -0.6518395
C           3.2450944    -2.0107574    -1.3418570
H           3.9366436    -1.7091332    -2.1409000
H           2.4771055    -2.6470491    -1.7911830
H           3.8274503    -2.6250968    -0.6417894
H           3.3867283    -0.1679475    -0.1431887
C           0.2111216    -1.1735236    -1.2544660
C          -1.1466219    -0.7159718    -0.7067355
H          -1.2930274     0.3591121    -0.8666262
H          -1.2227202    -0.9039304     0.3708346
H          -1.9719945    -1.2421967    -1.1986915
H           0.3115069    -2.2591393    -1.1249997
H           0.2292683    -1.0012923    -2.3415073
15
185_C5H10_2-0-8-9 (180,) energy =    -196.5362738
C           1.3700779    -0.5284176    -0.5138593
H           1.0995265     0.3272317     0.1062992
C           2.6693465    -0.8178982    -0.6432768
C           3.2562729    -1.9470500    -1.4434570
H           3.9678151    -1.5717737    -2.1916160
H           2.4919840    -2.5271534    -1.9688966
H           3.8177756    -2.6374783    -0.7987729
H           3.3900374    -0.1855955    -0.1238068
C           0.2111701    -1.2739479    -1.1453113
C          -1.1501887    -0.6677752    -0.7843502
H          -1.2170521     0.3759844    -1.1140160
H          -1.3142457    -0.6839017     0.2998164
H          -1.9702079    -1.2208159    -1.2552859
H           0.2288832    -2.3287457    -0.8358157
H           0.3218582    -1.2855168    -2.2391564
