19
245_C7H8N2O2_14-0-2-8 (-165,) energy =    -531.5418728
N           1.7624171    -0.7351704    -1.9903534
H           2.5083798    -0.5099010    -2.6462654
C           1.9940603    -0.4162578    -0.6898294
C           5.8145953     1.2590463     0.3795580
H           6.7919284     1.6817954     0.5856220
N           5.5537581     0.9548237    -0.9216227
H           6.2504086     1.1226372    -1.6393043
C           4.3617014     0.3980274    -1.4138038
C           3.3583600     0.1556448    -0.3872450
C           3.6306423     0.4680144     0.9243689
H           2.8441128     0.2668546     1.6460058
C           4.8666620     1.0269680     1.3352496
H           5.0627503     1.2657303     2.3733413
O           1.1622368    -0.5452196     0.2097356
C           0.4213623    -0.9853738    -2.4842694
H           0.4330918    -1.7955183    -3.2208504
H          -0.0079030    -0.0903374    -2.9551434
H          -0.2070087    -1.2737627    -1.6406403
O           4.2766556     0.1761224    -2.6291963
19
245_C7H8N2O2_14-0-2-8 (-150,) energy =    -531.5388413
N           1.7883481    -0.9032562    -1.9577185
H           2.5396817    -0.6679510    -2.6053446
C           2.0314803    -0.5576113    -0.6600247
C           5.7732546     1.3232600     0.3472409
H           6.7284323     1.8007703     0.5370162
N           5.5237638     0.9710356    -0.9436756
H           6.2089507     1.1530089    -1.6689394
C           4.3607245     0.3386616    -1.4147401
C           3.3731523     0.0759574    -0.3776688
C           3.6356217     0.4351415     0.9243882
H           2.8636610     0.2133741     1.6556294
C           4.8419563     1.0686762     1.3137473
H           5.0292180     1.3452072     2.3440551
O           1.2044858    -0.6749874     0.2441191
C           0.4318553    -0.8959599    -2.4836798
H           0.3269522    -1.6499527    -3.2701469
H           0.1692985     0.0861893    -2.9009114
H          -0.2569402    -1.1301998    -1.6709996
O           4.2854937     0.0759368    -2.6222457
19
245_C7H8N2O2_14-0-2-8 (-135,) energy =    -531.5337708
N           1.7994804    -1.0479488    -1.9303121
H           2.5704418    -0.8245078    -2.5601072
C           2.0724315    -0.7096463    -0.6277487
C           5.7154313     1.3869269     0.3159263
H           6.6436074     1.9206687     0.4892411
N           5.4841957     0.9829923    -0.9628255
H           6.1601416     1.1762448    -1.6938587
C           4.3573330     0.2728281    -1.4120005
C           3.3839255    -0.0072376    -0.3657445
C           3.6305867     0.4010780     0.9254885
H           2.8745493     0.1573157     1.6662306
C           4.8001665     1.1116153     1.2922761
H           4.9732621     1.4285342     2.3133856
O           1.2618097    -0.8473380     0.2862529
C           0.4716621    -0.7862485    -2.4764703
H           0.2591867    -1.4758306    -3.2992937
H           0.3881232     0.2439241    -2.8502590
H          -0.2674959    -0.9407480    -1.6889602
O           4.2986111    -0.0349213    -2.6092470
19
245_C7H8N2O2_14-0-2-8 (-120,) energy =    -531.5271789
N           1.8046525    -1.1859481    -1.8819993
H           2.5928143    -1.0014468    -2.5040302
C           2.1228022    -0.8477233    -0.5784843
C           5.6733148     1.4429741     0.2628234
H           6.5755681     2.0268978     0.4093265
N           5.4524874     0.9838930    -0.9985810
H           6.1143593     1.1811713    -1.7413697
C           4.3585916     0.2026605    -1.4124863
C           3.4051404    -0.0826401    -0.3487745
C           3.6444128     0.3785170     0.9265848
H           2.9090614     0.1229157     1.6839492
C           4.7802728     1.1575946     1.2570820
H           4.9458758     1.5178260     2.2649677
O           1.3415447    -1.0101430     0.3539075
C           0.5487522    -0.6735925    -2.4352343
H           0.2928846    -1.2308682    -3.3410334
H           0.6184764     0.3947204    -2.6862632
H          -0.2482946    -0.8151942    -1.7029195
O           4.3102200    -0.1558526    -2.5952022
19
245_C7H8N2O2_14-0-2-8 (-105,) energy =    -531.5199090
N           1.8063760    -1.3105292    -1.8352872
H           2.6103403    -1.1928828    -2.4541853
C           2.1766901    -0.9721169    -0.5317479
C           5.6352693     1.4932623     0.1899845
H           6.5117720     2.1218577     0.3048261
N           5.4154920     0.9897090    -1.0539911
H           6.0579587     1.1920944    -1.8123400
C           4.3528774     0.1452822    -1.4270847
C           3.4277447    -0.1477421    -0.3398328
C           3.6687288     0.3572217     0.9191918
H           2.9601936     0.0897776     1.6977502
C           4.7729114     1.1955739     1.2079028
H           4.9388001     1.5909826     2.2024499
O           1.4384672    -1.1747880     0.4235861
C           0.6703714    -0.5647036    -2.3972960
H           0.3721666    -1.0271644    -3.3423593
H           0.9144069     0.4916892    -2.5841537
H          -0.1742373    -0.6170232    -1.7064138
O           4.3076922    -0.2558356    -2.5951537
19
245_C7H8N2O2_14-0-2-8 (-90,) energy =    -531.5129962
N           1.7542633    -1.4120623    -1.8055096
H           2.5786889    -1.3729156    -2.4091476
C           2.1738737    -1.0850788    -0.4969640
C           5.5406558     1.5244092     0.1478198
H           6.3942047     2.1871089     0.2424870
N           5.3268979     0.9919550    -1.0845435
H           5.9535231     1.2047615    -1.8532818
C           4.2896292     0.1045132    -1.4328299
C           3.3887414    -0.2040710    -0.3290515
C           3.6265197     0.3289632     0.9195639
H           2.9401771     0.0467412     1.7126988
C           4.7015191     1.2124156     1.1812371
H           4.8638725     1.6308124     2.1669003
O           1.4918200    -1.3580656     0.4778425
C           0.7866461    -0.4517448    -2.3712637
H           0.4694883    -0.8155609    -3.3523611
H           1.2030464     0.5601176    -2.4915010
H          -0.0933213    -0.3985140    -1.7246106
O           4.2465369    -0.3178419    -2.5924200
19
245_C7H8N2O2_14-0-2-8 (-75,) energy =    -531.5166221
N           1.8033495    -1.3664637    -1.7259585
H           1.2007377    -2.1754645    -1.5746612
C           2.1437473    -0.9433425    -0.4381316
C           5.5595062     1.5367848     0.4024065
H           6.4487058     2.1372649     0.5642538
N           5.2605747     1.2362037    -0.8860647
H           5.8440060     1.5753936    -1.6430658
C           4.1448445     0.4875929    -1.3419015
C           3.3145142    -0.0200569    -0.2512811
C           3.6310510     0.2996028     1.0536644
H           2.9799789    -0.1017739     1.8243762
C           4.7522948     1.0851307     1.4095591
H           4.9767314     1.3160533     2.4434904
O           1.6293249    -1.4740351     0.5439778
C           1.1262659    -0.4462562    -2.6567447
H           0.1652960    -0.0883589    -2.2605099
H           0.9447789    -0.9807192    -3.5932757
H           1.7802474     0.3971371    -2.8761614
O           4.0029735     0.3566972    -2.5538900
19
245_C7H8N2O2_14-0-2-8 (-60,) energy =    -531.5204589
N           1.7388869    -1.3518535    -1.6815493
H           1.0980392    -2.1343825    -1.5652792
C           2.2173529    -1.0591671    -0.4144995
C           5.5023912     1.6025307     0.3999056
H           6.3576186     2.2515862     0.5570031
N           5.2509933     1.2355068    -0.8821383
H           5.8473344     1.5580112    -1.6363163
C           4.1906833     0.4084940    -1.3318162
C           3.3434947    -0.0756389    -0.2437012
C           3.6193184     0.2997837     1.0550811
H           2.9751285    -0.1079786     1.8282205
C           4.6925864     1.1531343     1.4052513
H           4.8797830     1.4349203     2.4339734
O           1.8296233    -1.7039732     0.5592887
C           1.1663582    -0.3336238    -2.5707184
H           0.2623317     0.1271028    -2.1475269
H           0.9045272    -0.8144761    -3.5172607
H           1.9126489     0.4298654    -2.7853080
O           4.1054183     0.1922915    -2.5375091
19
245_C7H8N2O2_14-0-2-8 (-45,) energy =    -531.5229248
N           1.6661628    -1.3339053    -1.6347438
H           0.9976437    -2.0926419    -1.5354630
C           2.2746182    -1.1500105    -0.4138061
C           5.4486135     1.6491009     0.3822467
H           6.2759453     2.3342614     0.5347973
N           5.2359345     1.2349155    -0.8933619
H           5.8410672     1.5484121    -1.6443103
C           4.2211064     0.3505940    -1.3337817
C           3.3610163    -0.1190886    -0.2507044
C           3.6042810     0.2930879     1.0425805
H           2.9682441    -0.1213231     1.8189558
C           4.6379937     1.1981142     1.3855808
H           4.7959423     1.5154942     2.4088210
O           1.9952352    -1.8810325     0.5368966
C           1.1992462    -0.2635159    -2.5165166
H           0.3951666     0.3325661    -2.0615745
H           0.8156717    -0.7213330    -3.4324844
H           2.0339365     0.3782522    -2.7938284
O           4.1780852     0.0731020    -2.5300146
19
245_C7H8N2O2_14-0-2-8 (-30,) energy =    -531.5241294
N           1.5968157    -1.3474858    -1.5304026
H           0.9256409    -2.1002549    -1.4233447
C           2.3464448    -1.2405849    -0.3894158
C           5.4135494     1.7015939     0.3041782
H           6.2134618     2.4237543     0.4291976
N           5.2078955     1.2420537    -0.9579652
H           5.7994807     1.5520081    -1.7210597
C           4.2311409     0.3011228    -1.3602297
C           3.3914986    -0.1609761    -0.2595430
C           3.6324312     0.2892195     1.0204378
H           3.0252543    -0.1312627     1.8164712
C           4.6311603     1.2465395     1.3273033
H           4.7852123     1.5986128     2.3397472
O           2.1891418    -2.0352370     0.5384448
C           1.1978676    -0.2734106    -2.4348103
H           0.5279575     0.4534789    -1.9534102
H           0.6670042    -0.7228383    -3.2783329
H           2.0808064     0.2304315    -2.8258571
O           4.1979422    -0.0313484    -2.5436940
19
245_C7H8N2O2_14-0-2-8 (-15,) energy =    -531.5246117
N           1.5488840    -1.3592669    -1.4855107
H           0.9374462    -2.1656119    -1.4600883
C           2.3747649    -1.3188368    -0.4016363
C           5.3286129     1.7494791     0.2065114
H           6.0977669     2.5085052     0.3028910
N           5.1204309     1.2573645    -1.0443856
H           5.6875576     1.5751539    -1.8225666
C           4.1825462     0.2612237    -1.4043450
C           3.3775725    -0.2011508    -0.2785981
C           3.6214556     0.2776959     0.9879558
H           3.0457383    -0.1483177     1.8046065
C           4.5888733     1.2805838     1.2544916
H           4.7491945     1.6597851     2.2561375
O           2.2990563    -2.1691946     0.4859657
C           1.2519543    -0.3202866    -2.4610343
H           1.4701246     0.6654706    -2.0422935
H           0.1827240    -0.3565438    -2.6937582
H           1.8348375    -0.4383173    -3.3778988
O           4.1463563    -0.1210252    -2.5713799
19
245_C7H8N2O2_14-0-2-8 (0,) energy =    -531.5245219
N           1.4744919    -1.3063293    -1.4186236
H           0.8963144    -2.1370784    -1.4370301
C           2.3960438    -1.3459692    -0.4153422
C           5.3106804     1.7563451     0.2083161
H           6.0705422     2.5245388     0.3049189
N           5.1164906     1.2545505    -1.0419647
H           5.6877320     1.5717159    -1.8173659
C           4.1954249     0.2437093    -1.3986036
C           3.3834660    -0.2147021    -0.2776962
C           3.6142050     0.2695018     0.9882266
H           3.0393033    -0.1562297     1.8056992
C           4.5700091     1.2850475     1.2541034
H           4.7202244     1.6716955     2.2544862
O           2.3883271    -2.2516846     0.4180520
C           1.2565693    -0.3036683    -2.4491109
H           1.5027821     0.6889760    -2.0636495
H           0.1942355    -0.3062208    -2.7128713
H           1.8621167    -0.4836814    -3.3413993
O           4.1729806    -0.1575396    -2.5603328
19
245_C7H8N2O2_14-0-2-8 (15,) energy =    -531.5243165
N           1.1109028     0.1097644    -1.4944091
H           0.1156911     0.2961237    -1.4999397
C           1.7447932     0.8635877    -0.5503019
C           5.9335555     0.5641495     0.4027123
H           7.0012835     0.5054518     0.5854424
N           5.5415224     0.5276010    -0.8989214
H           6.2298062     0.4782537    -1.6419459
C           4.2124247     0.5985273    -1.3740648
C           3.2232047     0.6823801    -0.3056952
C           3.6345906     0.7569029     1.0061434
H           2.8690337     0.8943002     1.7640961
C           4.9971896     0.6742938     1.3906098
H           5.2942513     0.7116380     2.4313435
O           1.1165651     1.6671074     0.1399060
C           1.5697607    -1.1026910    -2.1604952
H           0.8116041    -1.3900767    -2.8933534
H           1.7003390    -1.9387069    -1.4590358
H           2.5045318    -0.9125205    -2.6883813
O           4.0246500     0.6019117    -2.5900405
19
245_C7H8N2O2_14-0-2-8 (30,) energy =    -531.5241294
N           1.1424232     0.1860772    -1.5504815
H           0.1469129     0.3772456    -1.5186695
C           1.7618731     0.8247923    -0.5095458
C           5.9666964     0.6057045     0.3938258
H           7.0372521     0.5699048     0.5659721
N           5.5616075     0.5364906    -0.9013920
H           6.2422946     0.4810535    -1.6510250
C           4.2258430     0.5669843    -1.3661722
C           3.2455055     0.6666475    -0.2895798
C           3.6720206     0.7684967     1.0168608
H           2.9098783     0.9062603     1.7779773
C           5.0382015     0.7166003     1.3896127
H           5.3443560     0.7781031     2.4265393
O           1.1187675     1.5504301     0.2500636
C           1.5194676    -1.0835746    -2.1641362
H           0.8515029    -1.2598423    -3.0115348
H           1.4253532    -1.9300869    -1.4688281
H           2.5371004    -1.0233168    -2.5477346
O           4.0322702     0.5238894    -2.5798028
19
245_C7H8N2O2_14-0-2-8 (45,) energy =    -531.5229248
N           1.2086568     0.1934196    -1.6574336
H           0.2118032     0.3889241    -1.6347053
C           1.7619850     0.7066961    -0.5063040
C           5.9594429     0.6850773     0.4548671
H           7.0278843     0.7004515     0.6429928
N           5.5772154     0.5739633    -0.8434067
H           6.2703579     0.5268670    -1.5821384
C           4.2476103     0.5294344    -1.3292439
C           3.2470713     0.6183794    -0.2688555
C           3.6515612     0.7536674     1.0425323
H           2.8710827     0.8647506     1.7892262
C           5.0118767     0.7711675     1.4356216
H           5.2993661     0.8639421     2.4755451
O           1.0613494     1.3153125     0.3030040
C           1.5292392    -1.1093166    -2.2417050
H           0.9742664    -1.2068865    -3.1788326
H           1.2497679    -1.9437391    -1.5825654
H           2.5903458    -1.1566977    -2.4810455
O           4.0806103     0.4355846    -2.5429691
19
245_C7H8N2O2_14-0-2-8 (60,) energy =    -531.5204589
N           1.2562864     0.2402072    -1.7152623
H           0.2659936     0.4745333    -1.6841532
C           1.7729661     0.6027373    -0.4817209
C           5.9724762     0.7571961     0.4561620
H           7.0404582     0.8179941     0.6380543
N           5.5890711     0.5852508    -0.8341787
H           6.2809537     0.5252233    -1.5731723
C           4.2593130     0.4674164    -1.3119617
C           3.2598539     0.5763434    -0.2511489
C           3.6671218     0.7605954     1.0542401
H           2.8844313     0.8609281     1.8001117
C           5.0264672     0.8430391     1.4390958
H           5.3148461     0.9818860     2.4736364
O           1.0395196     1.0855222     0.3804551
C           1.4618617    -1.0885347    -2.3046573
H           0.9894300    -1.1019732    -3.2907325
H           1.0213182    -1.8879150    -1.6918468
H           2.5264834    -1.2674368    -2.4477977
O           4.0971686     0.2991468    -2.5174092
19
245_C7H8N2O2_14-0-2-8 (75,) energy =    -531.5166221
N           1.2993983     0.2800096    -1.7690966
H           0.3217535     0.5658003    -1.7138821
C           1.7872214     0.4645281    -0.4724155
C           5.9767929     0.8423910     0.4384375
H           7.0414009     0.9618286     0.6110396
N           5.5971619     0.5896087    -0.8390007
H           6.2892653     0.5084107    -1.5758129
C           4.2723391     0.3771241    -1.3002535
C           3.2715637     0.5147371    -0.2437871
C           3.6762851     0.7675080     1.0514225
H           2.8921941     0.8582477     1.7970513
C           5.0313752     0.9319430     1.4223601
H           5.3175256     1.1332556     2.4472026
O           1.0241993     0.7857037     0.4361258
C           1.3636069    -1.0471848    -2.4062929
H           0.9210104    -0.9688420    -3.4031125
H           0.8157228    -1.8091050    -1.8337057
H           2.4050276    -1.3439114    -2.5268909
O           4.1184582     0.1082014    -2.4877629
19
245_C7H8N2O2_14-0-2-8 (90,) energy =    -531.5129962
N           1.2351901     0.2664076    -1.8497912
H           1.9270279     0.5951997    -2.5271723
C           1.7253978     0.5768792    -0.5619307
C           5.9624018     0.7810371     0.1907402
H           7.0394548     0.8158867     0.3149201
N           5.5050387     0.7693276    -1.0893383
H           6.1535756     0.8076988    -1.8683325
C           4.1529360     0.7350524    -1.4835793
C           3.2189679     0.6815537    -0.3655490
C           3.6950698     0.7111616     0.9275694
H           2.9559838     0.6951148     1.7233537
C           5.0771418     0.7511245     1.2323072
H           5.4315671     0.7609560     2.2556510
O           0.9896206     0.5987635     0.4117839
C           1.0840003    -1.1821566    -2.0893192
H           2.0392445    -1.7278202    -2.0509590
H           0.6413034    -1.3262059    -3.0786484
H           0.4040569    -1.6048399    -1.3447707
O           3.8954064     0.7599074    -2.6910358
19
245_C7H8N2O2_14-0-2-8 (105,) energy =    -531.5199090
N           1.3397315     0.2137822    -1.8643950
H           2.0643548     0.4669010    -2.5382539
C           1.7983627     0.4845342    -0.5731858
C           6.0162920     0.8718660     0.2140916
H           7.0897355     0.9512671     0.3482259
N           5.5723811     0.8318144    -1.0706970
H           6.2266245     0.8901350    -1.8436009
C           4.2276464     0.7436825    -1.4773005
C           3.2847225     0.6598070    -0.3692801
C           3.7457083     0.7151391     0.9278839
H           2.9987377     0.6710105     1.7151507
C           5.1220744     0.8133926     1.2462700
H           5.4648255     0.8449263     2.2731673
O           1.0623672     0.4143630     0.4025695
C           0.9237118    -1.1727088    -2.1235997
H           1.7729272    -1.8721781    -2.1203498
H           0.4339599    -1.2218292    -3.1001603
H           0.2051084    -1.4833611    -1.3616788
O           3.9818330     0.7491370    -2.6884437
19
245_C7H8N2O2_14-0-2-8 (120,) energy =    -531.5271786
N           1.4335795     0.1358693    -1.8679345
H           2.1785632     0.3249596    -2.5394976
C           1.8608938     0.3762687    -0.5743650
C           6.0483742     0.9657724     0.2489027
H           7.1153255     1.0975089     0.3929341
N           5.6217758     0.8831588    -1.0402455
H           6.2818433     0.9557411    -1.8069097
C           4.2884373     0.7252671    -1.4592995
C           3.3365855     0.6201615    -0.3614564
C           3.7788258     0.7148459     0.9392793
H           3.0246948     0.6464653     1.7179412
C           5.1455427     0.8826292     1.2713878
H           5.4739429     0.9471112     2.3014455
O           1.1237322     0.2483534     0.3983359
C           0.7726692    -1.1412257    -2.1477567
H           1.4933672    -1.9698016    -2.2039452
H           0.2370609    -1.0770950    -3.0994181
H           0.0507875    -1.3508974    -1.3561731
O           4.0574903     0.6921556    -2.6738567
19
245_C7H8N2O2_14-0-2-8 (135,) energy =    -531.5337732
N           1.4228941    -0.0960043    -1.9784671
H           2.1944997     0.0915053    -2.6191692
C           1.7802998     0.0767306    -0.6639200
C           5.8766405     0.9565221     0.3390056
H           6.9237515     1.1659185     0.5291606
N           5.5108651     0.8587058    -0.9680484
H           6.1956984     0.9843002    -1.7055407
C           4.2126464     0.6045627    -1.4435264
C           3.2256919     0.4193492    -0.3888671
C           3.6056549     0.5257710     0.9299051
H           2.8270773     0.3874358     1.6745158
C           4.9409270     0.7927984     1.3210781
H           5.2205331     0.8682137     2.3647088
O           1.0178553    -0.1462833     0.2744207
C           0.5863548    -1.2328211    -2.3501194
H           1.1848334    -2.1446070    -2.4864943
H           0.0554828    -1.0189407    -3.2827354
H          -0.1459814    -1.4031796    -1.5595389
O           4.0362746     0.5613850    -2.6676388
19
245_C7H8N2O2_14-0-2-8 (150,) energy =    -531.5388343
N           1.5194591    -0.2140944    -1.9879312
H           2.2950404    -0.0577603    -2.6308701
C           1.8451089    -0.0564961    -0.6714667
C           5.8752549     1.0445762     0.3773455
H           6.9059999     1.3151947     0.5791583
N           5.5383270     0.8954567    -0.9330091
H           6.2292202     1.0374876    -1.6617742
C           4.2660736     0.5550156    -1.4226242
C           3.2698212     0.3515898    -0.3805723
C           3.6204440     0.5057553     0.9410365
H           2.8365280     0.3432534     1.6751094
C           4.9327139     0.8534407     1.3475469
H           5.1894423     0.9683961     2.3934604
O           1.0713091    -0.2927466     0.2561933
C           0.4959639    -1.1676920    -2.3877651
H           0.9375225    -2.1395690    -2.6476200
H          -0.0594204    -0.7935672    -3.2540707
H          -0.1943698    -1.3015475    -1.5539599
O           4.1164224     0.4609519    -2.6480257
19
245_C7H8N2O2_14-0-2-8 (165,) energy =    -531.5418732
N           1.6001889    -0.3644571    -1.9804037
H           2.3595192    -0.2032432    -2.6398365
C           1.9042821    -0.1956695    -0.6666864
C           5.8664324     1.1244415     0.3847048
H           6.8802434     1.4527879     0.5865221
N           5.5479427     0.9281754    -0.9243764
H           6.2368445     1.0874848    -1.6514148
C           4.2995833     0.5098196    -1.4140845
C           3.3073583     0.2794514    -0.3740275
C           3.6392136     0.4790724     0.9458567
H           2.8591331     0.2902975     1.6777541
C           4.9278868     0.9064332     1.3528833
H           5.1701176     1.0586294     2.3975154
O           1.1238008    -0.4299087     0.2573236
C           0.4273893    -1.1076188    -2.4012857
H           0.6884189    -2.1315417    -2.7014479
H          -0.0582745    -0.6096002    -3.2473344
H          -0.2681486    -1.1521299    -1.5622973
O           4.1645855     0.3779878    -2.6380464
19
245_C7H8N2O2_14-0-2-8 (180,) energy =    -531.5428261
N           1.6734390    -0.5397714    -1.9658279
H           2.4169543    -0.3423032    -2.6327365
C           1.9536477    -0.3220800    -0.6566683
C           5.8465963     1.1957644     0.3856601
H           6.8421834     1.5769004     0.5853913
N           5.5445608     0.9571107    -0.9204508
H           6.2293642     1.1340074    -1.6472757
C           4.3215354     0.4663653    -1.4062586
C           3.3361993     0.2104267    -0.3658063
C           3.6505963     0.4533440     0.9508876
H           2.8763951     0.2429569     1.6831373
C           4.9145009     0.9527635     1.3539805
H           5.1434421     1.1386498     2.3961561
O           1.1597763    -0.5265143     0.2636686
C           0.3905830    -1.0489150    -2.4069718
H           0.4716436    -2.0809189    -2.7728187
H          -0.0126447    -0.4254309    -3.2130508
H          -0.2929198    -1.0301335    -1.5569926
O           4.1992543     0.3019357    -2.6278163
