18
199_C7H8O2S_0-6-11-17 (-165,) energy =    -820.1353051
C           1.1221001     0.4957205    -0.2586121
H           2.0927345     0.9085659    -0.5150715
C           0.1439905     1.2833238     0.3479104
H           0.3584574     2.3207096     0.5883229
C          -1.1122809     0.7419796     0.6340925
H          -1.8723553     1.3604093     1.1035016
C           0.8250429    -0.8340500    -0.5660343
C          -1.3990087    -0.5863903     0.3118790
H          -2.3806132    -0.9998894     0.5250267
C          -0.4269246    -1.3856813    -0.2914171
H          -0.6301928    -2.4159731    -0.5643052
S           2.0892839    -1.8660916    -1.3297578
O           2.9268289    -1.0060916    -2.1804541
C           3.1083946    -2.3983639     0.0703829
H           3.5468804    -1.5232027     0.5535903
H           3.8929637    -3.0343902    -0.3473213
H           2.4907143    -2.9663785     0.7686870
O           1.4282703    -3.0651395    -1.8691166
18
199_C7H8O2S_0-6-11-17 (-150,) energy =    -820.1353739
C           1.0925227     0.5679356    -0.3568435
H           2.0282296     1.0104839    -0.6824120
C           0.0919263     1.3365872     0.2392583
H           0.2504782     2.3997358     0.3958435
C          -1.1123300     0.7425867     0.6238591
H          -1.8889389     1.3456296     1.0862069
C           0.8680192    -0.7951783    -0.5552323
C          -1.3286723    -0.6207885     0.4068104
H          -2.2726206    -1.0758243     0.6929275
C          -0.3374578    -1.3990352    -0.1908165
H          -0.4985559    -2.4528326    -0.3949004
S           2.1539458    -1.7924395    -1.3291992
O           3.0888754    -0.8784947    -2.0045480
C           3.0331723    -2.5253347     0.0749099
H           3.4586545    -1.7283653     0.6877748
H           3.8278014    -3.1437451    -0.3501778
H           2.3417442    -3.1410971     0.6532867
O           1.4991481    -2.8883086    -2.0608432
18
199_C7H8O2S_0-6-11-17 (-135,) energy =    -820.1347481
C           1.0530209     0.6286153    -0.4341460
H           1.9550308     1.0956548    -0.8150592
C           0.0268978     1.3817487     0.1394360
H           0.1262409     2.4609839     0.2126390
C          -1.1251511     0.7505376     0.6120012
H          -1.9210436     1.3402009     1.0584891
C           0.9075112    -0.7557716    -0.5217152
C          -1.2655979    -0.6360839     0.5035197
H          -2.1701900    -1.1223190     0.8574074
C          -0.2509710    -1.3970894    -0.0751988
H          -0.3652333    -2.4698092    -0.1986046
S           2.2111556    -1.7192391    -1.3106802
O           3.2266569    -0.7760540    -1.8059771
C           2.9539941    -2.6450639     0.0565317
H           3.3600980    -1.9409410     0.7853030
H           3.7562504    -3.2441321    -0.3814971
H           2.2029355    -3.2937269     0.5112735
O           1.5793564    -2.6908261    -2.2169222
18
199_C7H8O2S_0-6-11-17 (-120,) energy =    -820.1335344
C           1.0176733     0.6698113    -0.5065421
H           1.8885552     1.1539132    -0.9354009
C          -0.0377154     1.4085106     0.0313968
H           0.0027871     2.4939281     0.0185915
C          -1.1413454     0.7551143     0.5821133
H          -1.9596424     1.3333498     1.0021511
C           0.9529275    -0.7231855    -0.4794395
C          -1.2032950    -0.6413325     0.5874537
H          -2.0693091    -1.1478185     1.0038757
C          -0.1599881    -1.3882268     0.0426611
H          -0.2215675    -2.4720738     0.0120364
S           2.2763664    -1.6539022    -1.2766742
O           3.3584263    -0.7053179    -1.5869505
C           2.8849515    -2.7591345     0.0208066
H           3.2587225    -2.1595033     0.8529130
H           3.6987593    -3.3319050    -0.4306533
H           2.0881569    -3.4310477     0.3446087
O           1.6875660    -2.4832704    -2.3395221
18
199_C7H8O2S_0-6-11-17 (-105,) energy =    -820.1318932
C           0.9744935     0.6997951    -0.5796576
H           1.8115166     1.1936665    -1.0617217
C          -0.1058560     1.4247858    -0.0760405
H          -0.1214508     2.5060616    -0.1782115
C          -1.1600125     0.7645551     0.5580071
H          -1.9978724     1.3326147     0.9524731
C           0.9880764    -0.6885831    -0.4360763
C          -1.1441827    -0.6268352     0.6818813
H          -1.9689310    -1.1412613     1.1667129
C          -0.0751983    -1.3623099     0.1706718
H          -0.0813521    -2.4456807     0.2420807
S           2.3349804    -1.5881437    -1.2318013
O           3.4704088    -0.6580459    -1.3473158
C           2.8075927    -2.8622966    -0.0373460
H           3.1061054    -2.3842046     0.8974566
H           3.6588021    -3.3796839    -0.4865006
H           1.9866087    -3.5638298     0.1186548
O           1.8118349    -2.2573288    -2.4329351
18
199_C7H8O2S_0-6-11-17 (-90,) energy =    -820.1301327
C           0.9265717     0.7034608    -0.6615332
H           1.7228427     1.2003321    -1.2059831
C          -0.1735969     1.4165951    -0.1883455
H          -0.2473431     2.4828251    -0.3820870
C          -1.1743225     0.7646240     0.5359312
H          -2.0283817     1.3241905     0.9069260
C           1.0173278    -0.6665032    -0.4007331
C          -1.0802498    -0.6059497     0.7823442
H          -1.8602076    -1.1144812     1.3417741
C           0.0111801    -1.3319784     0.3026409
H           0.0645714    -2.4009720     0.4813365
S           2.4000892    -1.5366713    -1.1680650
O           3.5730370    -0.6526921    -1.0668659
C           2.7144781    -2.9679325    -0.1074282
H           2.9160541    -2.6310568     0.9110496
H           3.6042110    -3.4399379    -0.5310425
H           1.8755907    -3.6645776    -0.1426312
O           1.9778653    -2.0309832    -2.4879189
18
199_C7H8O2S_0-6-11-17 (-75,) energy =    -820.1287068
C           0.8716211     0.6921616    -0.7531433
H           1.6140749     1.1798168    -1.3768544
C          -0.2449369     1.3901866    -0.2994402
H          -0.3804766     2.4297473    -0.5835443
C          -1.1840798     0.7580924     0.5202149
H          -2.0522496     1.3069075     0.8739123
C           1.0425421    -0.6449923    -0.3797178
C          -1.0079215    -0.5765796     0.8843531
H          -1.7362135    -1.0713783     1.5205220
C           0.1046806    -1.2881043     0.4290256
H           0.2251812    -2.3284431     0.7112040
S           2.4807004    -1.4781419    -1.0831090
O           3.6634563    -0.6740985    -0.7362693
C           2.6189757    -3.0499577    -0.1992868
H           2.7244869    -2.8689704     0.8718976
H           3.5322509    -3.5031687    -0.5921568
H           1.7636414    -3.6901975    -0.4207662
O           2.2000831    -1.7801473    -2.4954521
18
199_C7H8O2S_0-6-11-17 (-60,) energy =    -820.1284696
C           0.8151584     0.6636062    -0.8548445
H           1.4919772     1.1142013    -1.5739787
C          -0.3135139     1.3512832    -0.4160738
H          -0.5131923     2.3508822    -0.7911500
C          -1.1861316     0.7578635     0.5003793
H          -2.0661488     1.2970808     0.8392403
C           1.0650814    -0.6249245    -0.3705445
C          -0.9280752    -0.5258513     0.9799255
H          -1.6038000    -0.9900141     1.6925802
C           0.2033017    -1.2234084     0.5493360
H           0.3946840    -2.2190381     0.9343379
S           2.5770767    -1.4073053    -0.9706838
O           3.7262536    -0.7234149    -0.3573805
C           2.5432725    -3.0962641    -0.3241262
H           2.5871523    -3.0890255     0.7661466
H           3.4472591    -3.5585678    -0.7277339
H           1.6609934    -3.6228256    -0.6922227
O           2.4770029    -1.4998885    -2.4358430
18
199_C7H8O2S_0-6-11-17 (-45,) energy =    -820.1296907
C           0.7680786     0.6043301    -0.9334756
H           1.3966032     0.9989071    -1.7252985
C          -0.3757543     1.2844017    -0.5198158
H          -0.6336674     2.2327272    -0.9823614
C          -1.1892205     0.7468847     0.4807221
H          -2.0821731     1.2781098     0.7978243
C           1.0889824    -0.6195198    -0.3390731
C          -0.8558040    -0.4709323     1.0749479
H          -1.4849254    -0.8893187     1.8554003
C           0.2940192    -1.1550453     0.6760981
H           0.5538878    -2.0918968     1.1575599
S           2.6531633    -1.3647205    -0.8460041
O           3.7338875    -0.8288896    -0.0037840
C           2.4849959    -3.1255714    -0.4631936
H           2.4404045    -3.2830392     0.6154313
H           3.3913211    -3.5839047    -0.8661533
H           1.6054193    -3.5300944    -0.9673694
O           2.7302983    -1.2546229    -2.3118655
18
199_C7H8O2S_0-6-11-17 (-30,) energy =    -820.1314765
C           0.7174274     0.5214560    -1.0030702
H           1.3152251     0.8538021    -1.8452836
C          -0.4434401     1.1970979    -0.6270298
H          -0.7509536     2.0836204    -1.1741742
C          -1.2080533     0.7343909     0.4456961
H          -2.1140477     1.2605575     0.7330429
C           1.0991993    -0.6217747    -0.2982845
C          -0.8087397    -0.4009965     1.1545236
H          -1.3987803    -0.7563914     1.9944378
C           0.3575487    -1.0764557     0.7949873
H           0.6786253    -1.9408504     1.3677414
S           2.6827704    -1.3673280    -0.7395460
O           3.6855018    -0.9960396     0.2707627
C           2.4007905    -3.1501773    -0.6013173
H           2.2003890    -3.4281413     0.4344790
H           3.3317174    -3.6144213    -0.9357979
H           1.5782033    -3.4379075    -1.2585849
O           2.9136885    -1.0867005    -2.1661968
18
199_C7H8O2S_0-6-11-17 (-15,) energy =    -820.1332407
C           0.6867823     0.4465509    -1.0385600
H           1.2576464     0.7279895    -1.9170652
C          -0.4964186     1.1024681    -0.6947762
H          -0.8565975     1.9207603    -1.3116695
C          -1.2127465     0.7090530     0.4367701
H          -2.1348236     1.2201150     0.6994047
C           1.1347306    -0.6062576    -0.2405492
C          -0.7439331    -0.3347042     1.2395229
H          -1.2956005    -0.6305867     2.1272209
C           0.4427605    -0.9888301     0.9119541
H           0.8273510    -1.7755504     1.5542189
S           2.7232286    -1.3600335    -0.6437896
O           3.6404922    -1.1616813     0.4889882
C           2.3534008    -3.1296207    -0.7435123
H           2.0012449    -3.4963863     0.2220964
H           3.2954223    -3.6163796    -1.0079021
H           1.6092610    -3.2950966    -1.5248453
O           3.0882332    -0.9243441    -2.0016589
18
199_C7H8O2S_0-6-11-17 (0,) energy =    -820.1345731
C           0.6643358     0.3601863    -1.0560866
H           1.2218127     0.5879837    -1.9584168
C          -0.5409931     0.9994255    -0.7601069
H          -0.9386440     1.7437575    -1.4440659
C          -1.2297908     0.6868096     0.4131676
H          -2.1680623     1.1858824     0.6391254
C           1.1601365    -0.5925006    -0.1662747
C          -0.7129606    -0.2573943     1.3051996
H          -1.2433900    -0.4862795     2.2250713
C           0.4943121    -0.8953583     1.0245119
H           0.9233886    -1.6018011     1.7287888
S           2.7468813    -1.3703614    -0.5232247
O           3.5596511    -1.3468143     0.7027156
C           2.3115578    -3.0971471    -0.8530178
H           1.8490110    -3.5363362     0.0328203
H           3.2496844    -3.6087197    -1.0823555
H           1.6375394    -3.1375788    -1.7108413
O           3.2502196    -0.8033894    -1.7846752
18
199_C7H8O2S_0-6-11-17 (15,) energy =    -820.1353198
C           0.6443385     0.2583010    -1.0761717
H           1.1807329     0.4261320    -2.0042749
C          -0.5730639     0.8881814    -0.8139741
H          -1.0058998     1.5544626    -1.5546999
C          -1.2273921     0.6693866     0.4003424
H          -2.1744145     1.1630570     0.6002867
C           1.1869052    -0.5897497    -0.1098291
C          -0.6651934    -0.1714816     1.3647395
H          -1.1694785    -0.3260563     2.3143374
C           0.5528446    -0.8036576     1.1162395
H           1.0197923    -1.4345392     1.8660563
S           2.7635581    -1.3977995    -0.4391191
O           3.4719529    -1.5522799     0.8411464
C           2.2875333    -3.0545674    -0.9961841
H           1.7385580    -3.5609504    -0.1999830
H           3.2189469    -3.5844680    -1.2113266
H           1.6816807    -2.9691696    -1.9003118
O           3.3901787    -0.7162374    -1.5829370
18
199_C7H8O2S_0-6-11-17 (30,) energy =    -820.1353636
C           0.6098894     0.1363909    -1.0820486
H           1.1185999     0.2316343    -2.0361652
C          -0.6118060     0.7680438    -0.8502884
H          -1.0763656     1.3504883    -1.6407945
C          -1.2294252     0.6612691     0.3987287
H          -2.1795460     1.1578584     0.5754022
C           1.1948066    -0.6024431    -0.0512601
C          -0.6275378    -0.0719558     1.4239265
H          -1.1046382    -0.1418637     2.3972972
C           0.5932336    -0.7111726     1.2033679
H           1.0883640    -1.2719876     1.9893060
S           2.7635104    -1.4381446    -0.3472356
O           3.3531871    -1.7681954     0.9599935
C           2.2775824    -2.9977413    -1.1304390
H           1.6467940    -3.5639369    -0.4424442
H           3.2044460    -3.5410953    -1.3312543
H           1.7522282    -2.7860665    -2.0636579
O           3.5125277    -0.6582772    -1.3451047
18
199_C7H8O2S_0-6-11-17 (45,) energy =    -820.1346471
C           0.5669319     0.0037479    -1.0835002
H           1.0353703     0.0122847    -2.0631805
C          -0.6495378     0.6514175    -0.8725733
H          -1.1470328     1.1490242    -1.7001146
C          -1.2209951     0.6691638     0.4030967
H          -2.1674068     1.1780897     0.5636807
C           1.1955067    -0.6266042    -0.0063470
C          -0.5795385     0.0405610     1.4719363
H          -1.0231806     0.0616180     2.4632618
C           0.6344945    -0.6186861     1.2705171
H           1.1530259    -1.1163116     2.0831131
S           2.7567315    -1.4895499    -0.2654879
O           3.2134959    -1.9882460     1.0417152
C           2.2939226    -2.9293409    -1.2614476
H           1.5837965    -3.5388595    -0.6993819
H           3.2178947    -3.4860826    -1.4366539
H           1.8661429    -2.5988720    -2.2097206
O           3.6251765    -0.6344709    -1.0895103
18
199_C7H8O2S_0-6-11-17 (60,) energy =    -820.1332516
C           0.5208010    -0.1410930    -1.0746914
H           0.9444153    -0.2349682    -2.0703181
C          -0.6783491     0.5447283    -0.8856160
H          -1.2003601     0.9643746    -1.7407889
C          -1.2021308     0.6969901     0.4011183
H          -2.1354780     1.2344690     0.5437504
C           1.1817156    -0.6737306     0.0353501
C          -0.5317249     0.1609352     1.5020867
H          -0.9408101     0.2795098     2.5013502
C           0.6631378    -0.5379205     1.3231217
H           1.1936473    -0.9804904     2.1593702
S           2.7331690    -1.5722878    -0.1665126
O           3.0267128    -2.2355168     1.1144338
C           2.3401251    -2.8715676    -1.3638988
H           1.5474894    -3.5026017    -0.9576233
H           3.2596179    -3.4491907    -1.4868174
H           2.0450478    -2.4296091    -2.3169489
O           3.7234743    -0.6728712    -0.7784200
18
199_C7H8O2S_0-6-11-17 (75,) energy =    -820.1314900
C           0.4261080    -0.2786916    -1.0643815
H           0.7811821    -0.4761652    -2.0710451
C          -0.7542445     0.4402538    -0.8741112
H          -1.3206679     0.7820950    -1.7356420
C          -1.2028325     0.7215757     0.4182291
H          -2.1215029     1.2835697     0.5612264
C           1.1458369    -0.7144609     0.0507256
C          -0.4768482     0.2778814     1.5254565
H          -0.8294994     0.4906654     2.5305708
C           0.6974820    -0.4532363     1.3468361
H           1.2596201    -0.8336033     2.1930163
S           2.6891266    -1.6368206    -0.1171582
O           2.8399828    -2.4496799     1.1009684
C           2.3981837    -2.7823676    -1.4873434
H           1.5304033    -3.4043811    -1.2606500
H           3.3000548    -3.3969305    -1.5419970
H           2.2651192    -2.2358150    -2.4221093
O           3.7612433    -0.7109480    -0.5147675
18
199_C7H8O2S_0-6-11-17 (90,) energy =    -820.1298274
C           0.3434605    -0.4122373    -1.0422942
H           0.6353218    -0.7116442    -2.0434562
C          -0.8158050     0.3443348    -0.8598363
H          -1.4211074     0.6156405    -1.7200327
C          -1.1938582     0.7501432     0.4205441
H          -2.0956573     1.3401926     0.5573911
C           1.1146532    -0.7578460     0.0689173
C          -0.4186091     0.3925463     1.5264674
H          -0.7178974     0.6997394     2.5243929
C           0.7339794    -0.3722883     1.3573289
H           1.3271493    -0.6853473     2.2102263
S           2.6385231    -1.7181680    -0.0604247
O           2.6423646    -2.6672934     1.0647752
C           2.4682095    -2.6888266    -1.5774699
H           1.5642323    -3.2982321    -1.5250463
H           3.3529143    -3.3297539    -1.5965692
H           2.4658873    -2.0375241    -2.4527384
O           3.7729928    -0.7975644    -0.2351307
18
199_C7H8O2S_0-6-11-17 (105,) energy =    -820.1286268
C           0.2679160    -0.5372096    -1.0270728
H           0.5032769    -0.9306600    -2.0100177
C          -0.8721366     0.2522432    -0.8571420
H          -1.5125372     0.4585060    -1.7099350
C          -1.1856962     0.7715722     0.3985043
H          -2.0725884     1.3858115     0.5256966
C           1.0866272    -0.7990976     0.0720804
C          -0.3622724     0.4983542     1.4943052
H          -0.6087376     0.8964470     2.4743692
C           0.7733616    -0.2925381     1.3378126
H           1.4070117    -0.5258668     2.1875838
S           2.5858787    -1.7998437    -0.0234302
O           2.4544059    -2.8782331     0.9691210
C           2.5595735    -2.5687016    -1.6602063
H           1.6568775    -3.1709283    -1.7771243
H           3.4413074    -3.2138648    -1.6708418
H           2.6462959    -1.8108397    -2.4404674
O           3.7508332    -0.9028270     0.0316280
18
199_C7H8O2S_0-6-11-17 (120,) energy =    -820.1284437
C           0.1784636    -0.6943671    -0.9627761
H           0.3530837    -1.1877658    -1.9125940
C          -0.9305044     0.1430906    -0.8177442
H          -1.6024869     0.2924883    -1.6580149
C          -1.1728934     0.7830234     0.3971444
H          -2.0365664     1.4329484     0.5053098
C           1.0380485    -0.8827655     0.1200782
C          -0.3035858     0.5910561     1.4746603
H          -0.4885836     1.0922184     2.4203527
C           0.8066747    -0.2388011     1.3403736
H           1.4925088    -0.3827963     2.1693274
S           2.5015240    -1.9378576     0.0563929
O           2.2454661    -3.1341474     0.8736911
C           2.6411741    -2.4772834    -1.6644216
H           1.7789556    -3.0843978    -1.9452002
H           3.5460582    -3.0893611    -1.6831583
H           2.7625171    -1.6145730    -2.3217218
O           3.6702738    -1.0917282     0.3446480
18
199_C7H8O2S_0-6-11-17 (135,) energy =    -820.1294429
C           0.0846203    -0.8115911    -0.9127429
H           0.1903170    -1.3965947    -1.8201295
C          -0.9936250     0.0659911    -0.7804782
H          -1.7094610     0.1617846    -1.5918458
C          -1.1504725     0.8145575     0.3863272
H          -1.9916648     1.4947661     0.4854866
C           1.0013653    -0.9282769     0.1333713
C          -0.2228096     0.6956079     1.4243511
H          -0.3387320     1.2853498     2.3290776
C           0.8628147    -0.1687385     1.2989513
H           1.6070943    -0.2457441     2.0849149
S           2.4243691    -2.0386489     0.0715083
O           2.0612307    -3.3229266     0.6908543
C           2.7125404    -2.3457518    -1.6885085
H           1.8908452    -2.9207664    -2.1180970
H           3.6310109    -2.9369254    -1.7169407
H           2.8609594    -1.3991498    -2.2111684
O           3.5843392    -1.2799495     0.5666121
18
199_C7H8O2S_0-6-11-17 (150,) energy =    -820.1310739
C           0.0052627    -0.9541684    -0.8501913
H           0.0472361    -1.6283204    -1.6997187
C          -1.0522159    -0.0513024    -0.7337169
H          -1.8175877    -0.0188818    -1.5038155
C          -1.1272092     0.8032511     0.3681133
H          -1.9535660     1.5030635     0.4554128
C           0.9852355    -0.9873847     0.1444404
C          -0.1390908     0.7645207     1.3541259
H          -0.1924837     1.4349870     2.2070659
C           0.9293017    -0.1245942     1.2411601
H           1.7236826    -0.1462827     1.9796844
S           2.3795422    -2.1331525     0.0735531
O           1.9292670    -3.4725042     0.4834473
C           2.8150790    -2.2165260    -1.6816413
H           2.0161555    -2.6898664    -2.2541986
H           3.7144653    -2.8359191    -1.7199487
H           3.0327175    -1.2128663    -2.0512575
O           3.5097116    -1.4813012     0.7550711
18
199_C7H8O2S_0-6-11-17 (165,) energy =    -820.1329202
C          -0.0870208    -1.0664371    -0.7685906
H          -0.1100577    -1.8259424    -1.5444017
C          -1.1176049    -0.1316227    -0.6754060
H          -1.9302114    -0.1509704    -1.3959682
C          -1.1071010     0.8226864     0.3452951
H          -1.9132640     1.5476360     0.4154126
C           0.9512747    -1.0298949     0.1657686
C          -0.0641714     0.8487897     1.2729585
H          -0.0569019     1.5928590     2.0642884
C           0.9787239    -0.0741284     1.1817039
H           1.8116117    -0.0600159     1.8765414
S           2.3107548    -2.2139339     0.0792866
O           1.7745172    -3.5716633     0.2601368
C           2.8971378    -2.0806939    -1.6289168
H           2.1123444    -2.3810629    -2.3248140
H           3.7448559    -2.7664550    -1.7027228
H           3.2225875    -1.0557635    -1.8159789
O           3.3936956    -1.7059635     0.9372080
18
199_C7H8O2S_0-6-11-17 (180,) energy =    -820.1344539
C          -0.1901688    -1.1599448    -0.6951390
H          -0.2724211    -1.9876163    -1.3934262
C          -1.1957498    -0.1979073    -0.6126237
H          -2.0585790    -0.2618980    -1.2693854
C          -1.0978678     0.8390382     0.3198348
H          -1.8857006     1.5845717     0.3829606
C           0.9104967    -1.0649011     0.1605780
C           0.0048123     0.9188496     1.1722700
H           0.0752470     1.7230248     1.8991058
C           1.0227391    -0.0332807     1.0923314
H           1.8927181     0.0080426     1.7390905
S           2.2340471    -2.2841141     0.0517195
O           1.6300065    -3.6246069     0.0039462
C           2.9727961    -1.9639788    -1.5709523
H           2.2290387    -2.1228624    -2.3538245
H           3.7915792    -2.6801033    -1.6769325
H           3.3569003    -0.9423975    -1.5931674
O           3.2476705    -1.9374340     1.0608963
