20
290_C7H9ClN2O_1-0-9-10 (-165,) energy =    -917.0910168
C           2.5226946    -0.7117441    -0.7741337
N           1.2762386    -0.1867881    -0.9531633
H           1.0537282     0.7035677    -0.5321700
C           0.2203361    -0.9214205    -1.6247344
H           0.6662569    -1.8097478    -2.0726889
H          -0.2346881    -0.3089069    -2.4111982
H          -0.5640619    -1.2317151    -0.9223657
C           3.3488036     1.2281840     0.8333827
Cl          1.8708181     2.0497277     1.2782650
C           3.4827110     0.1175783    -0.0049596
N           4.8422480    -0.1711741    -0.0300790
C           5.5093936    -1.2452187    -0.7657120
H           6.5853794    -1.1158335    -0.6252946
H           5.2677014    -1.1930530    -1.8278514
H           5.1955882    -2.2212557    -0.3953072
C           5.5111896     0.7192321     0.7570905
H           6.5852424     0.6578279     0.8609575
C           4.6145291     1.6072498     1.3175557
H           4.8343591     2.4245264     1.9884264
O           2.8529928    -1.8056193    -1.2414628
20
290_C7H9ClN2O_1-0-9-10 (-150,) energy =    -917.0901623
C           2.5055777    -0.7709874    -0.6698863
N           1.3426381    -0.1597549    -1.0407345
H           1.1700760     0.7820818    -0.7188031
C           0.2521673    -0.8893777    -1.6620506
H           0.6373141    -1.8618989    -1.9698560
H          -0.1157841    -0.3507180    -2.5420289
H          -0.5831829    -1.0404297    -0.9659585
C           3.3306469     1.1787476     0.9147677
Cl          1.8322534     1.9194617     1.4249927
C           3.4725255     0.0779863     0.0696617
N           4.8367916    -0.1521603    -0.0304981
C           5.4923495    -1.2061925    -0.8018600
H           6.5693611    -1.0296005    -0.7528756
H           5.1666326    -1.1797911    -1.8432276
H           5.2511175    -2.1888668    -0.3954646
C           5.5084052     0.7618157     0.7292419
H           6.5880674     0.7461983     0.7772393
C           4.6034844     1.6074273     1.3403148
H           4.8225574     2.4282376     2.0071412
O           2.7740724    -1.9359712    -0.9730877
20
290_C7H9ClN2O_1-0-9-10 (-135,) energy =    -917.0880615
C           2.4541894    -0.8072745    -0.5100756
N           1.3952820    -0.1411937    -1.0597168
H           1.2806485     0.8350161    -0.8239408
C           0.2687216    -0.8427773    -1.6511999
H           0.5798804    -1.8718006    -1.8339355
H          -0.0135274    -0.3755634    -2.6005042
H          -0.6037050    -0.8467358    -0.9849362
C           3.3061351     1.1534353     1.0342912
Cl          1.8019624     1.8272558     1.6117718
C           3.4421401     0.0530433     0.1938478
N           4.8016584    -0.1221797     0.0018026
C           5.4277127    -1.1610030    -0.8104615
H           6.5087526    -1.0106518    -0.7728197
H           5.0928126    -1.0925985    -1.8490107
H           5.1694155    -2.1498149    -0.4304276
C           5.4858111     0.8227932     0.7147104
H           6.5663048     0.8466705     0.6986968
C           4.5873688     1.6347439     1.3782811
H           4.8157429     2.4647580     2.0304716
O           2.6401507    -2.0154504    -0.6596609
20
290_C7H9ClN2O_1-0-9-10 (-120,) energy =    -917.0849850
C           2.4818813    -0.8185468    -0.4361192
N           1.5487895    -0.1448401    -1.1725082
H           1.5108411     0.8596518    -1.0637213
C           0.4063853    -0.8179457    -1.7684529
H           0.6614922    -1.8728925    -1.8746597
H           0.1942996    -0.3929715    -2.7544848
H          -0.4918759    -0.7321813    -1.1431330
C           3.3596674     1.1589972     1.0560478
Cl          1.8547500     1.7646877     1.7004960
C           3.4952392     0.0579448     0.2217506
N           4.8450640    -0.0634329    -0.0507993
C           5.4464174    -1.0593115    -0.9307138
H           6.5036305    -1.1569252    -0.6747547
H           5.3600777    -0.7586499    -1.9812490
H           4.9413538    -2.0149012    -0.7890008
C           5.5313376     0.9167330     0.6145167
H           6.6076229     0.9806140     0.5375451
C           4.6394868     1.6958961     1.3236030
H           4.8707792     2.5352847     1.9627786
O           2.5568421    -2.0461118    -0.4045744
20
290_C7H9ClN2O_1-0-9-10 (-105,) energy =    -917.0813779
C           2.3805575    -0.9514345    -0.3423172
N           1.5715902    -0.3143126    -1.2411755
H           1.6060113     0.6961839    -1.2538672
C           0.4368851    -0.9775534    -1.8633958
H           0.6160815    -2.0523627    -1.8171410
H           0.3480180    -0.6665261    -2.9089836
H          -0.5035037    -0.7536392    -1.3435181
C           3.3084461     1.0067723     1.1457551
Cl          1.8293270     1.5440480     1.8974833
C           3.4186824    -0.0624691     0.2730095
N           4.7453812    -0.1326638    -0.1036748
C           5.2992283    -1.0982845    -1.0431557
H           6.3761590    -1.1725431    -0.8777962
H           5.1179517    -0.7911982    -2.0797519
H           4.8387038    -2.0729945    -0.8725651
C           5.4517337     0.8495064     0.5424090
H           6.5177367     0.9468018     0.3924257
C           4.5898394     1.5788283     1.3348434
H           4.8413212     2.4070905     1.9809738
O           2.3487263    -2.1625991    -0.1438791
20
290_C7H9ClN2O_1-0-9-10 (-90,) energy =    -917.0785047
C           2.2195126    -0.8400371    -0.3846913
N           1.6081177    -0.2598437    -1.4628669
H           1.7775457     0.7260168    -1.6101119
C           0.4673034    -0.8752810    -2.1229644
H           0.5340680    -1.9530518    -1.9691775
H           0.4935704    -0.6552738    -3.1944169
H          -0.4859916    -0.5224238    -1.7087182
C           3.2831099     0.9826302     1.1857692
Cl          1.8532544     1.5274621     2.0188578
C           3.3130266     0.0009908     0.2130239
N           4.6224092    -0.0996941    -0.2140038
C           5.1073124    -1.0744795    -1.1795832
H           6.1774581    -0.9174899    -1.3271395
H           4.5950243    -0.9513752    -2.1390482
H           4.9373720    -2.0927439    -0.8169063
C           5.3991360     0.7821136     0.4968595
H           6.4637669     0.8419240     0.3201300
C           4.5971968     1.4788807     1.3753254
H           4.9046609     2.2480263     2.0685822
O           1.9684163    -1.9738363     0.0041507
20
290_C7H9ClN2O_1-0-9-10 (-75,) energy =    -917.0777978
C           2.1891795    -0.7198826    -0.3093685
N           1.7497468    -0.2865085    -1.5338862
H           2.0375003     0.6377008    -1.8257206
C           0.5944326    -0.8900339    -2.1806578
H           0.5936807    -1.9573894    -1.9545745
H           0.6624306    -0.7447107    -3.2623584
H          -0.3499846    -0.4626469    -1.8193787
C           3.3495075     0.9852370     1.3006381
Cl          1.9593833     1.5094859     2.2065389
C           3.3263360     0.0865576     0.2499661
N           4.6255252    -0.0158714    -0.2175416
C           5.0932246    -0.9868940    -1.1957369
H           6.0632006    -0.6612118    -1.5785165
H           4.3867802    -1.0465057    -2.0269143
H           5.1989337    -1.9816959    -0.7486826
C           5.4407749     0.7912794     0.5380550
H           6.5031309     0.8332324     0.3428892
C           4.6783842     1.4416805     1.4840128
H           5.0184927     2.1653848     2.2102704
O           1.7204353    -1.6949134     0.2613239
20
290_C7H9ClN2O_1-0-9-10 (-60,) energy =    -917.0783745
C           2.1421437    -0.6851543    -0.2933825
N           1.8350509    -0.3923518    -1.6020716
H           2.2024018     0.4724283    -1.9761879
C           0.6529169    -0.9624652    -2.2317722
H           0.5688338    -2.0079513    -1.9309039
H           0.7563838    -0.9027129    -3.3185575
H          -0.2673462    -0.4465225    -1.9281390
C           3.3763217     0.9106471     1.3496371
Cl          2.0284811     1.3899022     2.3366526
C           3.3129432     0.0705725     0.2504813
N           4.5961957     0.0059079    -0.2762542
C           5.0617288    -0.9496757    -1.2729703
H           5.9712742    -0.5592718    -1.7363242
H           4.2996228    -1.0848398    -2.0419752
H           5.2813419    -1.9221838    -0.8175301
C           5.4339674     0.7780545     0.4901682
H           6.4890428     0.8333706     0.2610654
C           4.7067075     1.3714965     1.4989535
H           5.0700071     2.0631123     2.2450008
O           1.5113952    -1.4987564     0.3669017
20
290_C7H9ClN2O_1-0-9-10 (-45,) energy =    -917.0789329
C           2.0848898    -0.6262577    -0.2510067
N           1.8930060    -0.4750462    -1.6105457
H           2.3255905     0.3328315    -2.0398322
C           0.6789203    -0.9883299    -2.2303172
H           0.4868385    -1.9902876    -1.8436048
H           0.8204991    -1.0371489    -3.3133380
H          -0.1979201    -0.3660911    -2.0077014
C           3.3732814     0.8736414     1.4187398
Cl          2.0596896     1.3176266     2.4632649
C           3.2854845     0.0642471     0.2950844
N           4.5529277     0.0482165    -0.2823807
C           5.0355768    -0.9088842    -1.2731645
H           5.8726087    -0.4616031    -1.8159574
H           4.2385797    -1.1491956    -1.9765234
H           5.3746204    -1.8343545    -0.7934894
C           5.3995125     0.8113767     0.4820944
H           6.4477806     0.8851246     0.2275096
C           4.6979306     1.3574024     1.5344729
H           5.0738029     2.0323929     2.2894627
O           1.3225395    -1.2791369     0.4485329
20
290_C7H9ClN2O_1-0-9-10 (-30,) energy =    -917.0787132
C           2.0116794    -0.5506163    -0.3297880
N           1.9795309    -0.6573910    -1.7082365
H           2.5581911    -0.0115486    -2.2285691
C           0.7487460    -1.0934703    -2.3547338
H           0.3979645    -2.0053861    -1.8687077
H           0.9555100    -1.3009084    -3.4080479
H          -0.0509575    -0.3447249    -2.2819446
C           3.3719008     0.7929485     1.4034172
Cl          2.0877762     1.2856981     2.4590320
C           3.2511160     0.0191447     0.2522095
N           4.5345231    -0.0821399    -0.2860568
C           4.9644872    -0.8943894    -1.4181074
H           4.8531952    -0.3616256    -2.3703362
H           4.3860870    -1.8176748    -1.4642973
H           6.0201865    -1.1409585    -1.2844063
C           5.4108844     0.5997571     0.5161013
H           6.4675999     0.6087134     0.2877215
C           4.7231541     1.1682787     1.5666821
H           5.1327451     1.7716807     2.3633794
O           1.0764389    -0.9260668     0.3661223
20
290_C7H9ClN2O_1-0-9-10 (-15,) energy =    -917.0777524
C           1.9791090    -0.4665581    -0.3525415
N           1.9983583    -0.7595558    -1.7077792
H           2.6396942    -0.2251480    -2.2783086
C           0.7449273    -1.1363053    -2.3508952
H           0.2821110    -1.9411435    -1.7778702
H           0.9606860    -1.4896591    -3.3628162
H           0.0295050    -0.3048755    -2.4003254
C           3.3740486     0.7537375     1.4317609
Cl          2.1136084     1.2140377     2.5275673
C           3.2397456     0.0219724     0.2511526
N           4.5208292    -0.0468596    -0.3065795
C           4.9597854    -0.8266671    -1.4584348
H           4.8481562    -0.2685014    -2.3969168
H           4.3905028    -1.7540471    -1.5282296
H           6.0177201    -1.0659470    -1.3306106
C           5.4027825     0.5992641     0.5172625
H           6.4574167     0.6187878     0.2797507
C           4.7263928     1.1197335     1.5988189
H           5.1432093     1.6884553     2.4169455
O           0.9731349    -0.6546001     0.3211675
20
290_C7H9ClN2O_1-0-9-10 (0,) energy =    -917.0758733
C           1.9659247    -0.3502259    -0.4031447
N           2.0065233    -0.8642319    -1.6917987
H           2.7236292    -0.5091574    -2.3077094
C           0.7372496    -1.1823383    -2.3372877
H           0.1664681    -1.8490150    -1.6891416
H           0.9446479    -1.6883762    -3.2840367
H           0.1234775    -0.2918488    -2.5263135
C           3.3832251     0.7330109     1.4452334
Cl          2.1379933     1.1675024     2.5674343
C           3.2421231     0.0543033     0.2311333
N           4.5305208    -0.0153338    -0.3160278
C           4.9742572    -0.7308885    -1.5049629
H           4.7772933    -0.1611847    -2.4228399
H           4.4874954    -1.7057207    -1.5721767
H           6.0533205    -0.8804299    -1.4322694
C           5.4168670     0.5720516     0.5453925
H           6.4733632     0.5842616     0.3158554
C           4.7417840     1.0545295     1.6441125
H           5.1626131     1.5706673     2.4943275
O           0.9100981    -0.3145981     0.2185107
20
290_C7H9ClN2O_1-0-9-10 (15,) energy =    -917.0777527
C           1.9756357    -0.0758645    -0.5741603
N           2.0281633    -0.9828256    -1.6217037
H           2.7380337    -1.7006336    -1.5650725
C           0.7753856    -1.3824420    -2.2521855
H           0.1372702    -1.9756334    -1.5840159
H           1.0028608    -1.9655869    -3.1486110
H           0.2206318    -0.4865080    -2.5348797
C           3.3939772     0.7452935     1.4087088
Cl          2.1326965     1.2369375     2.4897977
C           3.2471966     0.2265917     0.1215998
N           4.5400983    -0.0657403    -0.3254613
C           4.9584203    -0.4835711    -1.6588038
H           4.3163233    -0.0337569    -2.4167176
H           4.9330145    -1.5749922    -1.7724370
H           5.9863155    -0.1506721    -1.8181481
C           5.4389311     0.2839991     0.6460813
H           6.5004797     0.1747374     0.4722324
C           4.7647850     0.7783598     1.7412235
H           5.1943953     1.1297454     2.6677634
O           0.9287747     0.4862328    -0.2751727
20
290_C7H9ClN2O_1-0-9-10 (30,) energy =    -917.0787144
C           1.9897864    -0.0138245    -0.6322586
N           2.0078558    -1.0552264    -1.5421441
H           2.6633415    -1.8043517    -1.3635906
C           0.7721996    -1.4209297    -2.2220754
H           0.0429283    -1.8853969    -1.5453586
H           1.0056264    -2.1150435    -3.0338768
H           0.3171441    -0.5197534    -2.6362660
C           3.3878205     0.6931594     1.4183738
Cl          2.1085240     1.1321804     2.5031596
C           3.2486465     0.2214943     0.1157219
N           4.5399987    -0.0361194    -0.3460013
C           4.9447722    -0.4198258    -1.6932895
H           4.2894610     0.0418782    -2.4325793
H           4.9222189    -1.5073598    -1.8337451
H           5.9677458    -0.0739217    -1.8576861
C           5.4379121     0.2766169     0.6401102
H           6.5000452     0.1808710     0.4624053
C           4.7587396     0.7185326     1.7551389
H           5.1855384     1.0325251     2.6963299
O           0.9959286     0.6838176    -0.4728541
20
290_C7H9ClN2O_1-0-9-10 (45,) energy =    -917.0789330
C           2.3549907     0.0736155    -1.2535536
N           1.7300907    -1.0585019    -0.7679751
H           1.8288480    -1.2375793     0.2231135
C           0.5233780    -1.5525578    -1.4171123
H          -0.3551587    -0.9344201    -1.1898137
H           0.3349339    -2.5795841    -1.0929656
H           0.6763174    -1.5348805    -2.4972299
C           3.7409567     1.8671424    -0.0044876
Cl          2.7458589     3.2546368    -0.3180689
C           3.4889594     0.5693939    -0.4260185
N           4.4926147    -0.2271841     0.1201213
C           4.8424255    -1.5803778    -0.3007727
H           5.3607437    -2.0815306     0.5211049
H           5.4986456    -1.5620283    -1.1785929
H           3.9392112    -2.1374686    -0.5488192
C           5.3491663     0.5679387     0.8396498
H           6.2287493     0.1430830     1.3032784
C           4.9026678     1.8706768     0.8033404
H           5.3380237     2.7241625     1.3022666
O           1.9998185     0.6248294    -2.2864104
20
290_C7H9ClN2O_1-0-9-10 (60,) energy =    -917.0783745
C           2.4076353     0.0014073    -1.2764090
N           1.6612691    -1.0079489    -0.7134933
H           1.7042708    -1.1027404     0.2924476
C           0.4932156    -1.5385860    -1.4012893
H          -0.3782509    -0.8775264    -1.3073609
H           0.2451087    -2.5207007    -0.9898633
H           0.7294064    -1.6372136    -2.4620063
C           3.7145819     1.8178864     0.0508081
Cl          2.6622603     3.1735334    -0.2237250
C           3.4994240     0.5257004    -0.3985084
N           4.5438296    -0.2462726     0.0930574
C           4.8755102    -1.6007810    -0.3295707
H           5.4949344    -2.0675126     0.4404056
H           5.4257869    -1.5966905    -1.2775201
H           3.9623159    -2.1845868    -0.4548214
C           5.3908121     0.5558988     0.8173349
H           6.2886525     0.1458099     1.2582863
C           4.8969929     1.8422710     0.8291977
H           5.3145204     2.6965974     1.3417456
O           2.1965619     0.4298008    -2.4023341
20
290_C7H9ClN2O_1-0-9-10 (75,) energy =    -917.0777974
C           2.4531270    -0.0369943    -1.2876918
N           1.5799327    -0.8901026    -0.6631506
H           1.5612878    -0.8714169     0.3475068
C           0.4388583    -1.4546079    -1.3678746
H          -0.4178577    -0.7683428    -1.3811182
H           0.1397238    -2.3914078    -0.8896332
H           0.7350740    -1.6493100    -2.3997310
C           3.6579515     1.8064273     0.1251263
Cl          2.5319328     3.1142720    -0.0974788
C           3.5077073     0.5277175    -0.3792376
N           4.5932797    -0.2077732     0.0652190
C           4.9358907    -1.5518076    -0.3759782
H           5.6517026    -1.9814451     0.3286198
H           5.3804299    -1.5398470    -1.3774276
H           4.0397019    -2.1762935    -0.3948593
C           5.4086272     0.6026771     0.8171830
H           6.3264270     0.2171134     1.2384145
C           4.8504335     1.8606093     0.8886339
H           5.2334356     2.7140273     1.4288683
O           2.3992787     0.2157234    -2.4832423
20
290_C7H9ClN2O_1-0-9-10 (90,) energy =    -917.0785043
C           2.4847168    -0.1562770    -1.3663122
N           1.4648648    -0.7856258    -0.7054805
H           1.3671622    -0.5876383     0.2812177
C           0.3355981    -1.3696349    -1.4123513
H          -0.4982030    -0.6623210    -1.5091015
H          -0.0134270    -2.2619788    -0.8841363
H           0.6738431    -1.6452479    -2.4120116
C           3.5626767     1.7152284     0.1354412
Cl          2.3736013     2.9734487    -0.0602388
C           3.5029177     0.4650033    -0.4510892
N           4.6094630    -0.2356523    -0.0134469
C           4.9719861    -1.5736947    -0.4560398
H           5.8903887    -1.8728963     0.0524972
H           5.1354576    -1.5897591    -1.5378175
H           4.1802023    -2.2877039    -0.2080042
C           5.3591506     0.5698776     0.8083680
H           6.2805619     0.2068120     1.2413049
C           4.7340086     1.7924795     0.9298631
H           5.0667339     2.6396577     1.5115121
O           2.6118607    -0.1734425    -2.5842258
20
290_C7H9ClN2O_1-0-9-10 (105,) energy =    -917.0813778
C           2.6666527    -0.1942502    -1.4249127
N           1.5069425    -0.5992622    -0.8254926
H           1.3208822    -0.2415554     0.1018049
C           0.4045690    -1.1693309    -1.5834335
H          -0.3579398    -0.4176728    -1.8249684
H          -0.0622458    -1.9793503    -1.0143724
H           0.8131264    -1.5661389    -2.5135335
C           3.5650140     1.6841627     0.1795040
Cl          2.3055694     2.8752608    -0.0120865
C           3.6290896     0.4740383    -0.4902669
N           4.7617453    -0.1721180    -0.0357820
C           5.1954138    -1.4975825    -0.4563719
H           6.2618374    -1.6023941    -0.2456782
H           5.0254915    -1.6095931    -1.5286588
H           4.6474317    -2.2819141     0.0786393
C           5.4058835     0.6287115     0.8723773
H           6.3296728     0.3048365     1.3306897
C           4.6912763     1.7979859     1.0300872
H           4.9453155     2.6372424     1.6608390
O           2.9546343    -0.4590240    -2.5886665
20
290_C7H9ClN2O_1-0-9-10 (120,) energy =    -917.0849861
C           2.6591704    -0.2584334    -1.3218212
N           1.4248865    -0.4716078    -0.7759275
H           1.2114280     0.0097231     0.0871787
C           0.3246012    -1.0224880    -1.5498861
H          -0.3497281    -0.2382470    -1.9177755
H          -0.2493636    -1.7258426    -0.9383626
H           0.7520383    -1.5488492    -2.4039875
C           3.5111794     1.6468261     0.2758006
Cl          2.1846456     2.7756750     0.1630730
C           3.6149627     0.4506058    -0.4207031
N           4.8099320    -0.1262608    -0.0331448
C           5.3091630    -1.4227118    -0.4774501
H           6.3904754    -1.4499451    -0.3262797
H           5.0805378    -1.5514368    -1.5355283
H           4.8485484    -2.2377136     0.0926837
C           5.4431851     0.6983770     0.8576218
H           6.4036887     0.4241661     1.2706974
C           4.6674587     1.8200409     1.0701799
H           4.9006620     2.6646956     1.7016735
O           2.9988337    -0.7074262    -2.4156036
20
290_C7H9ClN2O_1-0-9-10 (135,) energy =    -917.0880615
C           2.6304641    -0.2711828    -1.2802991
N           1.3371580    -0.2944675    -0.8399945
H           1.0941006     0.3059899    -0.0640502
C           0.2612417    -0.8497334    -1.6432972
H          -0.3423812    -0.0633554    -2.1147856
H          -0.3919870    -1.4733860    -1.0240405
H           0.7141308    -1.4639576    -2.4222198
C           3.4744238     1.6717123     0.2907422
Cl          2.1124198     2.7645415     0.2638456
C           3.5783519     0.4742152    -0.4099026
N           4.8176805    -0.0541519    -0.0924693
C           5.3715094    -1.3077196    -0.5951741
H           6.3532877    -1.4482211    -0.1379654
H           5.4605271    -1.2769522    -1.6814629
H           4.7275359    -2.1492435    -0.3258170
C           5.4684666     0.7955629     0.7582574
H           6.4604164     0.5597249     1.1170166
C           4.6650135     1.8884691     1.0167303
H           4.8991346     2.7377011     1.6415682
O           3.0158079    -0.8952301    -2.2696023
20
290_C7H9ClN2O_1-0-9-10 (150,) energy =    -917.0901623
C           2.6212274    -0.4128702    -1.1838343
N           1.2980768    -0.2728969    -0.8784726
H           1.0350795     0.4049920    -0.1772059
C           0.2524710    -0.8731122    -1.6871679
H          -0.2755336    -0.1224571    -2.2895835
H          -0.4747046    -1.3886130    -1.0504872
H           0.7233494    -1.5956254    -2.3543467
C           3.4550550     1.5680009     0.3570149
Cl          2.0634267     2.6236645     0.4126065
C           3.5630538     0.3649258    -0.3408005
N           4.8467753    -0.1018429    -0.0991242
C           5.4437465    -1.3303971    -0.6187269
H           6.4196037    -1.4501287    -0.1423736
H           5.5554987    -1.2771184    -1.7020924
H           4.8163526    -2.1920177    -0.3837477
C           5.5069532     0.7812720     0.7058092
H           6.5263280     0.5888687     1.0092455
C           4.6741718     1.8406067     1.0084970
H           4.9061506     2.7016000     1.6178060
O           3.0266695    -1.1771923    -2.0628237
20
290_C7H9ClN2O_1-0-9-10 (165,) energy =    -917.0910167
C           2.5924543    -0.4887032    -1.0938657
N           1.2691918    -0.1896629    -0.9495341
H           1.0013804     0.5692629    -0.3397902
C           0.2412731    -0.8445327    -1.7370351
H          -0.2035307    -0.1583927    -2.4693298
H          -0.5536432    -1.2296000    -1.0885259
H           0.7073868    -1.6751378    -2.2675698
C           3.4363233     1.5089626     0.4316189
Cl          2.0262958     2.5313582     0.5859869
C           3.5411240     0.3100392    -0.2795728
N           4.8560248    -0.1097258    -0.1146903
C           5.4790026    -1.3158913    -0.6595521
H           6.4921986    -1.3701901    -0.2537338
H           5.5106763    -1.2772619    -1.7485081
H           4.9177913    -2.2046570    -0.3690127
C           5.5272129     0.7900056     0.6598609
H           6.5682553     0.6321597     0.9037126
C           4.6774757     1.8176306     1.0185067
H           4.9121521     2.6807960     1.6236553
O           2.9896243    -1.3880555    -1.8405104
20
290_C7H9ClN2O_1-0-9-10 (180,) energy =    -917.0911485
C           2.5092762    -0.6117030    -0.9528157
N           1.2117621    -0.2015450    -0.9734775
H           0.9322059     0.6267659    -0.4698626
C           0.2198015    -0.9476732    -1.7278482
H           0.4730579    -0.9759434    -2.7933120
H          -0.7501055    -0.4610779    -1.6025303
H           0.1523790    -1.9815662    -1.3727700
C           3.3455399     1.3579678     0.6130953
Cl          1.8968079     2.2885592     0.9188985
C           3.4658498     0.2009120    -0.1632479
N           4.8085211    -0.1561672    -0.0950919
C           5.4620035    -1.2981031    -0.7356775
H           6.5192734    -1.2612961    -0.4613771
H           5.3555266    -1.2469649    -1.8194231
H           5.0209623    -2.2359912    -0.3976699
C           5.4787185     0.7388572     0.6851232
H           6.5398699     0.6276066     0.8575891
C           4.6012220     1.6999695     1.1467282
H           4.8275898     2.5411936     1.7849957
O           2.8686384    -1.6207813    -1.5681887
