22
096_C10H10N2_9-0-17-16 (-165,) energy =    -496.5871932
C           2.4580541    -1.5472911    -0.3784384
H           2.7482915    -2.6055934    -0.4212303
H           1.8315718    -1.4416553     0.5143539
C           5.9984720     0.9339694    -0.0965527
H           6.8855101     1.5577586    -0.0270824
C           4.7657811     1.4126330     0.3545100
H           4.6907842     2.4111719     0.7770397
C           3.6285518     0.6097752     0.2688017
H           2.6716586     0.9873836     0.6221000
C           3.7012397    -0.6858752    -0.2640883
C           4.9429627    -1.1529524    -0.7149113
H           5.0175819    -2.1578538    -1.1250799
C           6.0842542    -0.3512746    -0.6324127
H           7.0394309    -0.7345207    -0.9816749
C          -0.0084508    -1.1562101    -2.9982959
H          -0.9966257    -1.3379098    -3.3996277
N           0.3539155    -1.6224372    -1.7534842
C           1.6003171    -1.2274164    -1.5765966
N           2.0538559    -0.5277141    -2.6620240
H           2.9722978    -0.1169800    -2.7513149
C           1.0273956    -0.4731819    -3.5836606
H           1.1277984     0.0434246    -4.5262636
22
096_C10H10N2_9-0-17-16 (-150,) energy =    -496.5874538
C           2.4924459    -1.6007875    -0.4354413
H           2.8167586    -2.6438828    -0.5559856
H           1.8756501    -1.5741650     0.4688797
C           5.9667830     0.9601494    -0.0556101
H           6.8365107     1.6048664     0.0377069
C           4.7098107     1.4119722     0.3562123
H           4.5994956     2.4102628     0.7715614
C           3.5942760     0.5843727     0.2387878
H           2.6177889     0.9419796     0.5573244
C           3.7132983    -0.7110387    -0.2865604
C           4.9778528    -1.1521888    -0.6960544
H           5.0886839    -2.1579961    -1.0962573
C           6.0982837    -0.3242707    -0.5826110
H           7.0720529    -0.6871833    -0.9010584
C          -0.0882644    -0.9549679    -2.8888945
H          -1.1234736    -0.9834947    -3.2017872
N           0.2929297    -1.3925339    -1.6386292
C           1.5994115    -1.2167081    -1.5850251
N           2.0734202    -0.6853311    -2.7546691
H           3.0325923    -0.4234386    -2.9331396
C           0.9962180    -0.5078668    -3.5998690
H           1.1040066    -0.0854407    -4.5875537
22
096_C10H10N2_9-0-17-16 (-135,) energy =    -496.5874805
C           2.5607544    -1.6765882    -0.5312589
H           2.9270621    -2.6885114    -0.7535557
H           1.9707514    -1.7556396     0.3879413
C           5.9369550     0.9848294     0.0179055
H           6.7816941     1.6542219     0.1564778
C           4.6387524     1.4253331     0.2924433
H           4.4716815     2.4394213     0.6461112
C           3.5549920     0.5673924     0.1158164
H           2.5461996     0.9155045     0.3254059
C           3.7474984    -0.7476917    -0.3339087
C           5.0512590    -1.1772215    -0.6066696
H           5.2175003    -2.1965922    -0.9493501
C           6.1406835    -0.3187882    -0.4324731
H           7.1460160    -0.6723065    -0.6464014
C          -0.1555492    -0.7588788    -2.7388464
H          -1.2120479    -0.6457543    -2.9417896
N           0.2937311    -1.2077472    -1.5150516
C           1.6098989    -1.2275053    -1.6051091
N           2.0242876    -0.8082787    -2.8420328
H           2.9843782    -0.6856284    -3.1309204
C           0.8976021    -0.4995480    -3.5780698
H           0.9559868    -0.1332295    -4.5920283
22
096_C10H10N2_9-0-17-16 (-120,) energy =    -496.5872708
C           2.6461176    -1.7294937    -0.6286092
H           3.0506974    -2.7027228    -0.9381505
H           2.0886269    -1.9033146     0.2981893
C           5.9195128     1.0213662     0.0874799
H           6.7384833     1.7117788     0.2706945
C           4.5957848     1.4448474     0.2380540
H           4.3825087     2.4669886     0.5400805
C           3.5447529     0.5604601     0.0026845
H           2.5158956     0.8937883     0.1156224
C           3.7972782    -0.7639694    -0.3842474
C           5.1256068    -1.1770338    -0.5334043
H           5.3371033    -2.2026722    -0.8294726
C           6.1818678    -0.2923953    -0.2989412
H           7.2073340    -0.6324022    -0.4187352
C          -0.1637113    -0.5864734    -2.6005787
H          -1.2131096    -0.3432042    -2.6985814
N           0.3581862    -1.0351662    -1.4057063
C           1.6417197    -1.2417586    -1.6319810
N           1.9647688    -0.9407437    -2.9296790
H           2.8918239    -0.9664894    -3.3296011
C           0.8128865    -0.5139333    -3.5602690
H           0.8029952    -0.2129741    -4.5971378
22
096_C10H10N2_9-0-17-16 (-105,) energy =    -496.5870150
C           2.6718870    -1.7462923    -0.6615250
H           3.0975619    -2.6907564    -1.0250317
H           2.1385291    -1.9779753     0.2670079
C           5.8748870     1.0580510     0.1595425
H           6.6759984     1.7615779     0.3699775
C           4.5402945     1.4544690     0.2838360
H           4.3004849     2.4687850     0.5923879
C           3.5115013     0.5538355     0.0131148
H           2.4735095     0.8640244     0.1039368
C           3.7997146    -0.7596185    -0.3840074
C           5.1382801    -1.1468437    -0.5066164
H           5.3766768    -2.1641868    -0.8111285
C           6.1714944    -0.2457730    -0.2363136
H           7.2058693    -0.5646002    -0.3366397
C          -0.1446405    -0.4007680    -2.4884809
H          -1.1541365    -0.0133682    -2.5170674
N           0.4280542    -0.8180323    -1.3057107
C           1.6388157    -1.2369069    -1.6231261
N           1.8662427    -1.1013041    -2.9680102
H           2.7284518    -1.3128329    -3.4493693
C           0.7278271    -0.5618382    -3.5337199
H           0.6513608    -0.3616057    -4.5919087
22
096_C10H10N2_9-0-17-16 (-90,) energy =    -496.5866776
C           2.7168001    -1.7563789    -0.7223327
H           3.1628188    -2.6721701    -1.1301485
H           2.2030457    -2.0422448     0.2028056
C           5.8571049     1.0805133     0.2232495
H           6.6431218     1.7906427     0.4661704
C           4.5143827     1.4467524     0.3502436
H           4.2530357     2.4447388     0.6927887
C           3.5041714     0.5380156     0.0383384
H           2.4596059     0.8244064     0.1276132
C           3.8213535    -0.7536861    -0.4041346
C           5.1677933    -1.1113752    -0.5296945
H           5.4281228    -2.1118841    -0.8701140
C           6.1816128    -0.2021184    -0.2176616
H           7.2225938    -0.4975977    -0.3214042
C          -0.0606615    -0.2469358    -2.4797497
H          -1.0061950     0.2783959    -2.4786203
N           0.5595494    -0.6072550    -1.3027709
C           1.6658861    -1.2340443    -1.6577500
N           1.7802588    -1.2867171    -3.0222483
H           2.5482296    -1.6883629    -3.5405212
C           0.6763636    -0.6555470    -3.5612264
H           0.5241243    -0.5741122    -4.6269264
22
096_C10H10N2_9-0-17-16 (-75,) energy =    -496.5860993
C           2.7538739    -1.7315990    -0.8011644
H           3.2181939    -2.6114955    -1.2626446
H           2.2625956    -2.0862464     0.1139303
C           5.8469211     1.0957835     0.3143215
H           6.6224988     1.8009814     0.6013816
C           4.4991276     1.4436086     0.4365264
H           4.2232667     2.4230177     0.8190981
C           3.5010414     0.5418683     0.0688001
H           2.4528217     0.8149815     0.1498716
C           3.8376563    -0.7250232    -0.4272336
C           5.1894733    -1.0645350    -0.5486133
H           5.4647281    -2.0454336    -0.9316926
C           6.1901311    -0.1623331    -0.1799513
H           7.2351987    -0.4435814    -0.2822750
C           0.0102399    -0.1053796    -2.5129426
H          -0.8590363     0.5383138    -2.5067868
N           0.7034981    -0.3815036    -1.3547311
C           1.6828929    -1.1935100    -1.7067254
N           1.6439316    -1.4470532    -3.0525893
H           2.2947407    -2.0210311    -3.5688899
C           0.5727707    -0.7540030    -3.5818898
H           0.3199732    -0.7987694    -4.6304281
22
096_C10H10N2_9-0-17-16 (-60,) energy =    -496.5852066
C           2.7973741    -1.6963208    -0.8944397
H           3.2790798    -2.5395128    -1.4036341
H           2.3238655    -2.1172459     0.0040478
C           5.8581480     1.0906531     0.3964657
H           6.6278331     1.7824611     0.7285937
C           4.5079041     1.4273193     0.5193712
H           4.2240055     2.3854625     0.9472988
C           3.5161309     0.5430886     0.0952137
H           2.4672430     0.8117243     0.1715673
C           3.8629552    -0.6955064    -0.4619205
C           5.2180554    -1.0234062    -0.5843930
H           5.5020642    -1.9816345    -1.0154034
C           6.2114303    -0.1392211    -0.1580510
H           7.2584711    -0.4119684    -0.2631490
C           0.0770618    -0.0053154    -2.5926989
H          -0.7077766     0.7386524    -2.6159093
N           0.8691790    -0.1736604    -1.4783854
C           1.7090408    -1.1469038    -1.7760581
N           1.4850323    -1.6081265    -3.0468492
H           1.9995005    -2.3415697    -3.5125754
C           0.4373038    -0.8839287    -3.5814512
H           0.0611285    -1.0649157    -4.5769268
22
096_C10H10N2_9-0-17-16 (-45,) energy =    -496.5842117
C           2.8135788    -1.6583152    -0.9457405
H           3.3048439    -2.4866468    -1.4704850
H           2.3268924    -2.1096406    -0.0673769
C           5.8600548     1.0744877     0.4790618
H           6.6270892     1.7519840     0.8451412
C           4.5086121     1.3727132     0.6689081
H           4.2210674     2.2868206     1.1821308
C           3.5199334     0.5063775     0.2030409
H           2.4711764     0.7527943     0.3284029
C           3.8705494    -0.6748809    -0.4658490
C           5.2270830    -0.9635532    -0.6543385
H           5.5143055    -1.8768139    -1.1718926
C           6.2177292    -0.0979518    -0.1857907
H           7.2655783    -0.3405239    -0.3434201
C           0.1951246     0.1174589    -2.7253768
H          -0.4797554     0.9562493    -2.8300708
N           1.0764248     0.0370201    -1.6692834
C           1.7417446    -1.0884720    -1.8386393
N           1.3190467    -1.7356004    -2.9709585
H           1.6763413    -2.6112791    -3.3246340
C           0.3233198    -0.9710713    -3.5481530
H          -0.1721223    -1.2654445    -4.4609440
22
096_C10H10N2_9-0-17-16 (-30,) energy =    -496.5834826
C           2.8188522    -1.6529174    -0.9550044
H           3.3159549    -2.4997753    -1.4449969
H           2.2825220    -2.0794086    -0.0929921
C           5.8304347     1.0896754     0.5114304
H           6.5880195     1.7731620     0.8858756
C           4.4857044     1.2841189     0.8366475
H           4.1932278     2.1228682     1.4630707
C           3.5119247     0.4079087     0.3599656
H           2.4667433     0.5752485     0.5990763
C           3.8671049    -0.6774338    -0.4525218
C           5.2158787    -0.8621357    -0.7744750
H           5.5067283    -1.7004912    -1.4042796
C           6.1938075     0.0131866    -0.2969682
H           7.2366916    -0.1483211    -0.5574720
C           0.4283864     0.2178927    -2.9461142
H          -0.0906517     1.1349037    -3.1904457
N           1.3706245     0.1774806    -1.9406075
C           1.8070152    -1.0648522    -1.9065957
N           1.1785264    -1.8285196    -2.8571273
H           1.3467828    -2.8064797    -3.0442258
C           0.2893972    -1.0131052    -3.5317303
H          -0.3255585    -1.3781557    -4.3405373
22
096_C10H10N2_9-0-17-16 (-15,) energy =    -496.5830137
C           2.8722023    -1.6542270    -1.0180941
H           3.3943256    -2.4735355    -1.5300540
H           2.3409126    -2.1216763    -0.1740878
C           5.8036479     1.1091499     0.5619294
H           6.5414917     1.7972400     0.9661624
C           4.4540483     1.2495953     0.8953179
H           4.1382512     2.0510138     1.5581756
C           3.5067841     0.3670005     0.3795084
H           2.4573327     0.4905335     0.6293296
C           3.8923949    -0.6705785    -0.4794746
C           5.2451688    -0.8010254    -0.8093408
H           5.5590252    -1.6014520    -1.4761504
C           6.1974333     0.0809514    -0.2935104
H           7.2442736    -0.0379303    -0.5608816
C           0.5612313     0.2511505    -3.0724583
H           0.1451401     1.1902536    -3.4114275
N           1.5818462     0.2158907    -2.1454762
C           1.8536394    -1.0589007    -1.9582828
N           1.0421444    -1.8496309    -2.7329125
H           1.0588012    -2.8582408    -2.7803937
C           0.2074530    -1.0161210    -3.4538032
H          -0.5254770    -1.3980485    -4.1485888
22
096_C10H10N2_9-0-17-16 (0,) energy =    -496.5828182
C           2.9238805    -1.6751940    -1.0849806
H           3.4734862    -2.4577992    -1.6261620
H           2.4051482    -2.1915586    -0.2622945
C           5.7665530     1.1130144     0.6074089
H           6.4816776     1.8075430     1.0403478
C           4.4118298     1.2026744     0.9381114
H           4.0691508     1.9698945     1.6275637
C           3.4941856     0.3122055     0.3846198
H           2.4402175     0.3953994     0.6350069
C           3.9134508    -0.6823984    -0.5085552
C           5.2705534    -0.7619550    -0.8350000
H           5.6106558    -1.5276082    -1.5290425
C           6.1940302     0.1282841    -0.2821736
H           7.2450268     0.0499897    -0.5481194
C           0.6768711     0.2432125    -3.1969005
H           0.3495741     1.1778380    -3.6320022
N           1.7622119     0.1926278    -2.3472370
C           1.8907493    -1.0719611    -2.0033356
N           0.9234273    -1.8412827    -2.6012203
H           0.8056948    -2.8392788    -2.5011340
C           0.1385139    -1.0041951    -3.3721130
H          -0.6967407    -1.3708370    -3.9498667
22
096_C10H10N2_9-0-17-16 (15,) energy =    -496.5830103
C           2.1822689    -0.6095327    -0.3729048
H           1.9427316    -1.5127752     0.2103365
H           1.6163710     0.2054892     0.0975654
C           6.4137373     0.2025721     0.0345600
H           7.4761913     0.4026324     0.1461545
C           5.4751515     1.1665294     0.4002908
H           5.8007434     2.1238744     0.7990138
C           4.1112127     0.9030550     0.2550763
H           3.3844153     1.6599192     0.5427182
C           3.6660244    -0.3211705    -0.2539535
C           4.6175647    -1.2823791    -0.6200852
H           4.2865263    -2.2298964    -1.0340486
C           5.9794059    -1.0226475    -0.4776910
H           6.7043452    -1.7781559    -0.7693540
C           1.4927765    -1.1560088    -3.8971359
H           1.8206466    -1.3394510    -4.9114354
N           2.3997299    -1.0157464    -2.8675909
C           1.6833815    -0.8009713    -1.7837054
N           0.3428251    -0.7966212    -2.0780627
H          -0.4125777    -0.6493474    -1.4242186
C           0.2099192    -1.0243817    -3.4350977
H          -0.7541817    -1.0605480    -3.9198261
22
096_C10H10N2_9-0-17-16 (30,) energy =    -496.5834827
C           2.1908704    -0.6992802    -0.3642655
H           1.9903340    -1.6270778     0.1939390
H           1.5992798     0.0804986     0.1320618
C           6.3937125     0.2635285     0.0223852
H           7.4487293     0.5027431     0.1273314
C           5.4226067     1.1803860     0.4232840
H           5.7153685     2.1395281     0.8426722
C           4.0684288     0.8671203     0.2867073
H           3.3156793     1.5868066     0.6021590
C           3.6656755    -0.3609760    -0.2484849
C           4.6491633    -1.2755122    -0.6492257
H           4.3495987    -2.2225565    -1.0861953
C           6.0015057    -0.9647581    -0.5155544
H           6.7519571    -1.6836468    -0.8341118
C           1.4679399    -1.3212856    -3.8673226
H           1.7711797    -1.6336524    -4.8575188
N           2.3652745    -1.2944470    -2.8210805
C           1.6862225    -0.8694155    -1.7754882
N           0.3798452    -0.6201609    -2.1114784
H          -0.3392805    -0.2722988    -1.4937676
C           0.2284602    -0.9074303    -3.4550315
H          -0.7140316    -0.7835175    -3.9668437
22
096_C10H10N2_9-0-17-16 (45,) energy =    -496.5842121
C           2.1879229    -0.7081456    -0.3579089
H           2.0008567    -1.6073352     0.2491111
H           1.5920418     0.0892477     0.1025663
C           6.3826546     0.3089509     0.0268580
H           7.4341645     0.5616684     0.1355294
C           5.4018647     1.1345170     0.5756021
H           5.6828929     2.0362971     1.1136386
C           4.0525426     0.8047250     0.4317945
H           3.2929521     1.4538426     0.8631879
C           3.6630902    -0.3497016    -0.2571044
C           4.6558016    -1.1737008    -0.8061210
H           4.3627643    -2.0549219    -1.3663402
C           6.0035177    -0.8436834    -0.6652777
H           6.7613719    -1.4904036    -1.1001405
C           1.3724456    -1.6316311    -3.7724489
H           1.6013236    -2.1452762    -4.6964461
N           2.2328364    -1.6784802    -2.6972888
C           1.6652817    -0.9601251    -1.7486400
N           0.4672575    -0.4502340    -2.1780836
H          -0.1535110     0.1411117    -1.6446819
C           0.2675279    -0.8765162    -3.4771157
H          -0.6091903    -0.6026776    -4.0442884
22
096_C10H10N2_9-0-17-16 (60,) energy =    -496.5852047
C           2.1809581    -0.7561044    -0.3061004
H           2.0318312    -1.6645474     0.2948844
H           1.5766598     0.0237861     0.1722091
C           6.3645978     0.3492377    -0.0336157
H           7.4135428     0.6228210     0.0450208
C           5.3896683     1.1125643     0.6080304
H           5.6731019     1.9866929     1.1887941
C           4.0433630     0.7567157     0.5020225
H           3.2886801     1.3571263     1.0065888
C           3.6522604    -0.3630305    -0.2408198
C           4.6381223    -1.1241237    -0.8840168
H           4.3383652    -1.9798924    -1.4806627
C           5.9826350    -0.7681379    -0.7801426
H           6.7358453    -1.3665395    -1.2864601
C           1.2906684    -1.7876458    -3.6657905
H           1.4302081    -2.4242710    -4.5290673
N           2.0651748    -1.9349943    -2.5361589
C           1.6405528    -1.0203411    -1.6852002
N           0.6198272    -0.2873846    -2.2316126
H           0.1321432     0.4764752    -1.7864329
C           0.3840949    -0.7722170    -3.5034305
H          -0.3825427    -0.3618115    -4.1430162
22
096_C10H10N2_9-0-17-16 (75,) energy =    -496.5860993
C           2.1651666    -0.8433463    -0.2492481
H           2.0658040    -1.7816233     0.3113390
H           1.5445678    -0.1050583     0.2728467
C           6.3132701     0.4114067    -0.0928384
H           7.3539163     0.7215116    -0.0467696
C           5.3378884     1.1199512     0.6082768
H           5.6131327     1.9871667     1.2031813
C           4.0016650     0.7179117     0.5447059
H           3.2462266     1.2745798     1.0961793
C           3.6227764    -0.3940950    -0.2151032
C           4.6087756    -1.0998336    -0.9180769
H           4.3166655    -1.9543815    -1.5216967
C           5.9429339    -0.6990164    -0.8558969
H           6.6967981    -1.2555948    -1.4069016
C           1.2081480    -1.8854779    -3.5808960
H           1.2457860    -2.5947762    -4.3966771
N           1.8749439    -2.1201504    -2.3982756
C           1.6138979    -1.0818236    -1.6261367
N           0.8035184    -0.1864274    -2.2732070
H           0.4778939     0.6955519    -1.9048940
C           0.5349329    -0.6921577    -3.5301714
H          -0.0964150    -0.1739497    -4.2360032
22
096_C10H10N2_9-0-17-16 (90,) energy =    -496.5866776
C           2.1636332    -0.9211011    -0.2024923
H           2.1084630    -1.8898060     0.3075947
H           1.5311893    -0.2291037     0.3675948
C           6.2661594     0.4813700    -0.1322759
H           7.2958971     0.8282313    -0.1110793
C           5.2871696     1.1432360     0.6082334
H           5.5492210     2.0100390     1.2096413
C           3.9645077     0.6943411     0.5771443
H           3.2061419     1.2136188     1.1601630
C           3.6037192    -0.4186462    -0.1894720
C           4.5937671    -1.0770514    -0.9319136
H           4.3167241    -1.9359594    -1.5374185
C           5.9141637    -0.6306493    -0.9021577
H           6.6712327    -1.1517705    -1.4825834
C           1.0828092    -1.9452494    -3.4986863
H           0.9920995    -2.6956545    -4.2724188
N           1.6591919    -2.2383785    -2.2814194
C           1.5974967    -1.1231750    -1.5776408
N           1.0040268    -0.1222138    -2.3012213
H           0.8641801     0.8302453    -1.9963249
C           0.6690121    -0.6387386    -3.5375382
H           0.1745214    -0.0469004    -4.2930146
22
096_C10H10N2_9-0-17-16 (105,) energy =    -496.5870149
C           2.1754460    -0.9957668    -0.1930710
H           2.1516489    -1.9863266     0.2744395
H           1.5316416    -0.3451205     0.4131541
C           6.2301886     0.5392667    -0.1471294
H           7.2481083     0.9196545    -0.1340078
C           5.2416948     1.1522941     0.6220847
H           5.4847396     2.0140948     1.2384207
C           3.9339794     0.6603803     0.6016171
H           3.1681422     1.1409296     1.2075231
C           3.5973455    -0.4475084    -0.1832423
C           4.5978693    -1.0560502    -0.9543417
H           4.3422442    -1.9133014    -1.5721416
C           5.9032591    -0.5677274    -0.9354095
H           6.6679672    -1.0517068    -1.5375066
C           0.9230716    -1.9864485    -3.4382798
H           0.6851711    -2.7504802    -4.1660392
N           1.4357639    -2.3126796    -2.2006281
C           1.5970143    -1.1660757    -1.5670558
N           1.2087902    -0.1135327    -2.3546231
H           1.2731219     0.8648799    -2.1129243
C           0.7770050    -0.6287729    -3.5609194
H           0.4113362     0.0017746    -4.3574164
22
096_C10H10N2_9-0-17-16 (120,) energy =    -496.5872725
C           2.1964894    -1.0568121    -0.1949088
H           2.2109120    -2.0776583     0.2016853
H           1.5450013    -0.4711537     0.4677987
C           6.1879835     0.6330550    -0.1499528
H           7.1900641     1.0533683    -0.1389529
C           5.1683342     1.2295738     0.5905771
H           5.3710251     2.1180501     1.1830869
C           3.8811770     0.6850191     0.5741332
H           3.0912337     1.1512085     1.1598397
C           3.5961198    -0.4593200    -0.1784451
C           4.6288433    -1.0499944    -0.9215201
H           4.4157875    -1.9355539    -1.5155598
C           5.9134763    -0.5102019    -0.9063935
H           6.7032042    -0.9820324    -1.4853144
C           0.7284542    -1.8759192    -3.3984265
H           0.3365911    -2.5984782    -4.1015530
N           1.2016569    -2.2636421    -2.1625963
C           1.5927452    -1.1534025    -1.5661720
N           1.3903719    -0.0651534    -2.3745698
H           1.6575207     0.8859392    -2.1646113
C           0.8386601    -0.5184129    -3.5564924
H           0.5837269     0.1499433    -4.3652387
22
096_C10H10N2_9-0-17-16 (135,) energy =    -496.5874808
C           2.2371103    -1.1602097    -0.2184034
H           2.2922685    -2.1995509     0.1218314
H           1.5757913    -0.6368917     0.4863016
C           6.1507565     0.7004937    -0.1594260
H           7.1330918     1.1649374    -0.1459134
C           5.0908268     1.2799991     0.5365384
H           5.2421664     2.1989746     1.0968889
C           3.8294012     0.6776690     0.5189409
H           3.0077346     1.1292215     1.0713412
C           3.6099050    -0.5078381    -0.1914545
C           4.6836834    -1.0800085    -0.8903681
H           4.5242459    -1.9978502    -1.4515242
C           5.9428813    -0.4834916    -0.8734117
H           6.7646711    -0.9426954    -1.4167124
C           0.5553140    -1.7962215    -3.3587034
H           0.0155837    -2.4543234    -4.0263770
N           0.9993612    -2.2314938    -2.1281690
C           1.6081393    -1.1956461    -1.5828058
N           1.5742617    -0.1102167    -2.4181882
H           2.0121186     0.7826977    -2.2415219
C           0.9036003    -0.4859121    -3.5650971
H           0.7475443     0.1947239    -4.3885531
22
096_C10H10N2_9-0-17-16 (150,) energy =    -496.5874660
C           2.2793355    -1.2734495    -0.2388482
H           2.3828387    -2.3311275     0.0263352
H           1.6156651    -0.8316608     0.5173904
C           6.1112843     0.7473350    -0.1531862
H           7.0728517     1.2531297    -0.1337855
C           5.0102978     1.3070852     0.4941400
H           5.1091417     2.2519144     1.0222101
C           3.7763233     0.6510946     0.4701798
H           2.9238086     1.0881867     0.9860151
C           3.6240582    -0.5702738    -0.1973708
C           4.7387420    -1.1208100    -0.8481233
H           4.6341061    -2.0668290    -1.3744605
C           5.9715233    -0.4707217    -0.8246880
H           6.8254806    -0.9153395    -1.3290396
C           0.3712305    -1.6486600    -3.2900753
H          -0.3112241    -2.2091842    -3.9149356
N           0.7920858    -2.1397101    -2.0729755
C           1.6080351    -1.2248998    -1.5851463
N           1.7257932    -0.1628111    -2.4416726
H           2.3191571     0.6422304    -2.2996814
C           0.9368419    -0.4250192    -3.5438959
H           0.8701030     0.2564044    -4.3786432
22
096_C10H10N2_9-0-17-16 (165,) energy =    -496.5871972
C           2.3354819    -1.3517735    -0.2567882
H           2.4945998    -2.4206288    -0.0753464
H           1.6831139    -1.0007915     0.5539831
C           6.0840175     0.8175954    -0.1643582
H           7.0243306     1.3617884    -0.1433825
C           4.9419906     1.3667051     0.4192905
H           4.9883965     2.3410532     0.8985640
C           3.7358003     0.6620060     0.3956899
H           2.8504078     1.0908543     0.8602292
C           3.6515548    -0.5992694    -0.2085604
C           4.8064299    -1.1381109    -0.7949979
H           4.7566764    -2.1157765    -1.2690617
C           6.0127545    -0.4385056    -0.7720518
H           6.8986328    -0.8754027    -1.2254587
C           0.2038376    -1.4608904    -3.1799906
H          -0.6096292    -1.9031016    -3.7397190
N           0.5997366    -1.9773970    -1.9655966
C           1.6015164    -1.2168189    -1.5669888
N           1.8622234    -0.2287049    -2.4775212
H           2.5906917     0.4660703    -2.3948463
C           0.9706282    -0.3756989    -3.5212969
H           0.9804081     0.2761357    -4.3818030
22
096_C10H10N2_9-0-17-16 (180,) energy =    -496.5869894
C           2.3555556    -1.4212518    -0.2861260
H           2.5670681    -2.4921178    -0.1752234
H           1.7056371    -1.1539403     0.5558102
C           6.0328195     0.8642564    -0.1375789
H           6.9551681     1.4376742    -0.1024232
C           4.8709094     1.3661672     0.4508776
H           4.8843477     2.3331049     0.9468860
C           3.6881529     0.6255199     0.4080737
H           2.7869539     1.0211821     0.8710663
C           3.6458886    -0.6278970    -0.2174881
C           4.8200142    -1.1197368    -0.8066195
H           4.8050622    -2.0927807    -1.2928477
C           6.0041229    -0.3819071    -0.7672688
H           6.9053329    -0.7830573    -1.2234689
C           0.0909827    -1.3368063    -3.1087845
H          -0.8194074    -1.6575445    -3.5975897
N           0.4314132    -1.8024571    -1.8576166
C           1.5798186    -1.2225803    -1.5652783
N           1.9904610    -0.4024961    -2.5806445
H           2.8387572     0.1456053    -2.5828703
C           1.0408031    -0.4668042    -3.5809162
H           1.1309480     0.0982994    -4.4963071
