19
173_C5H10N2O2_0-2-3-5 (-165,) energy =    -456.4711719
N           1.0239383    -0.8129418    -0.8199433
H           0.6737756    -0.0154129    -0.3047085
C           2.2624858    -1.3048510    -0.4432537
N           3.0533063    -0.3785664     0.2264988
H           2.7725727     0.5885054     0.1275414
C           4.4767118    -0.5770093     0.4219381
H           4.8570383     0.3464912     0.8663660
C           4.9998859    -1.8076630     1.1957372
H           4.3025967    -2.6506569     1.1926269
H           5.3864006    -1.6351196     2.2077850
C           5.4210207    -1.0783093    -0.7011308
H           6.1259509    -0.3516865    -1.1244626
H           4.9026832    -1.6157062    -1.5018900
O           6.0635776    -1.9791294     0.2293647
O           2.6313273    -2.4463134    -0.6957088
C           0.0170186    -1.7363399    -1.3225566
H          -0.7147452    -1.1831122    -1.9183859
H          -0.5071717    -2.2748722    -0.5205869
H           0.5151551    -2.4710677    -1.9557183
19
173_C5H10N2O2_0-2-3-5 (-150,) energy =    -456.4696090
N           1.0364999    -0.8452072    -0.8569719
H           0.7187038     0.0342784    -0.4698998
C           2.1973423    -1.3861529    -0.3313390
N           2.9871945    -0.4740374     0.3676333
H           2.6958334     0.4917461     0.2738640
C           4.4332625    -0.6227015     0.4239392
H           4.8204843     0.3080245     0.8466989
C           5.0700304    -1.8440249     1.1227416
H           4.4037458    -2.7101115     1.1681869
H           5.5460823    -1.6733560     2.0960638
C           5.2809059    -1.0748265    -0.7922990
H           5.9132546    -0.3178081    -1.2730958
H           4.7073765    -1.6221551    -1.5486857
O           6.0428471    -1.9621461     0.0557822
O           2.5240267    -2.5545975    -0.5031237
C          -0.0044351    -1.7303178    -1.3602516
H          -0.5667040    -1.2230579    -2.1500396
H          -0.7026611    -2.0542342    -0.5758692
H           0.4824018    -2.6134886    -1.7744772
19
173_C5H10N2O2_0-2-3-5 (-135,) energy =    -456.4666494
N           1.1111563    -0.8627475    -0.8701879
H           0.8591637     0.0928498    -0.6550907
C           2.1628209    -1.4306884    -0.1772792
N           2.9517715    -0.5202585     0.5381360
H           2.6399082     0.4408218     0.4498246
C           4.4055706    -0.6167484     0.4770503
H           4.7940461     0.3210905     0.8825038
C           5.1348995    -1.8259647     1.1011862
H           4.5001697    -2.7131280     1.1797807
H           5.6805494    -1.6572259     2.0373922
C           5.1652665    -1.0249067    -0.8104924
H           5.7279951    -0.2422606    -1.3347253
H           4.5501557    -1.5849542    -1.5256510
O           6.0245651    -1.8936429    -0.0418341
O           2.4266045    -2.6252602    -0.2361125
C           0.0546665    -1.7034549    -1.4137532
H          -0.3370241    -1.2558518    -2.3322977
H          -0.7737992    -1.8518979    -0.7074138
H           0.4932793    -2.6745902    -1.6446865
19
173_C5H10N2O2_0-2-3-5 (-120,) energy =    -456.4627892
N           1.1963305    -0.9320742    -0.8438728
H           1.0820360     0.0717042    -0.8449026
C           2.1145317    -1.4965473     0.0146037
N           2.9259985    -0.5729386     0.7066305
H           2.5981273     0.3832574     0.6092236
C           4.3735376    -0.6355092     0.5236049
H           4.7794140     0.2895566     0.9412015
C           5.1608199    -1.8645801     1.0258398
H           4.5373622    -2.7575230     1.1264126
H           5.7893357    -1.7306474     1.9142073
C           5.0255739    -0.9748899    -0.8412779
H           5.5433715    -0.1657221    -1.3719090
H           4.3506796    -1.4956687    -1.5346630
O           5.9434679    -1.8808295    -0.1964369
O           2.2700546    -2.7059356     0.1152999
C           0.1285020    -1.7259189    -1.4310016
H          -0.0361718    -1.4228238    -2.4699168
H          -0.8160134    -1.6310672    -0.8784279
H           0.4473438    -2.7684695    -1.4072893
19
173_C5H10N2O2_0-2-3-5 (-105,) energy =    -456.4607200
N           1.4159752    -0.9851556    -0.7772737
H           1.5850393    -0.0752872    -1.1803773
C           2.0824938    -1.2698137     0.3729406
N           3.0097526    -0.2113674     0.7220857
H           2.8968138    -0.0851005     1.7282379
C           4.4291248    -0.4967367     0.4813377
H           4.9912252     0.3034334     0.9706691
C           5.0803076    -1.8850486     0.7329290
H           4.3605042    -2.7045225     0.8350365
H           5.8279851    -1.9456167     1.5330411
C           4.9023568    -0.7116843    -0.9700333
H           5.5075076     0.0826008    -1.4238485
H           4.0943069    -0.9892163    -1.6620291
O           5.6949249    -1.8522809    -0.5798326
O           1.8906751    -2.2641476     1.0589984
C           0.4169949    -1.8658666    -1.3533968
H           0.6613714    -2.1108530    -2.3931254
H          -0.5802589    -1.4105283    -1.3221063
H           0.4060152    -2.7812154    -0.7602898
19
173_C5H10N2O2_0-2-3-5 (-90,) energy =    -456.4623952
N           1.5484543    -0.9887240    -0.8563866
H           1.7743093    -0.1226286    -1.3232301
C           2.0135177    -1.1328070     0.4169540
N           2.9978774    -0.1394531     0.7574102
H           2.9084825    -0.0234726     1.7661258
C           4.4021577    -0.4656623     0.4810869
H           5.0003958     0.2856939     1.0034865
C           4.9872232    -1.8891306     0.6777918
H           4.2261463    -2.6795269     0.7105995
H           5.7008302    -2.0346301     1.4974421
C           4.8871670    -0.6384504    -0.9733907
H           5.5211291     0.1542792    -1.3883957
H           4.0857524    -0.8756700    -1.6855044
O           5.6443306    -1.8135969    -0.6101255
O           1.6115223    -1.9779128     1.2047977
C           0.5033481    -1.8393690    -1.3971564
H           0.6863798    -2.0317578    -2.4587357
H          -0.4917127    -1.3897654    -1.2826271
H           0.5190917    -2.7824588    -0.8493387
19
173_C5H10N2O2_0-2-3-5 (-75,) energy =    -456.4639393
N           1.6764331    -1.1525565    -0.8862853
H           2.0066695    -0.3959791    -1.4672474
C           1.9493007    -1.0632521     0.4509099
N           3.0013843    -0.1494500     0.7589690
H           2.9030248     0.0393662     1.7534942
C           4.3905498    -0.5248175     0.4887016
H           5.0088539     0.1280361     1.1099774
C           4.8863136    -1.9924229     0.5548996
H           4.0829597    -2.7352463     0.4555986
H           5.5392935    -2.2728923     1.3896248
C           4.9487218    -0.5691190    -0.9521588
H           5.6479829     0.2245749    -1.2416295
H           4.1854302    -0.6821052    -1.7327980
O           5.6198308    -1.8178851    -0.6791787
O           1.3236193    -1.6635644     1.3136999
C           0.5708857    -1.9629442    -1.3690833
H           0.7462409    -2.2314252    -2.4145142
H          -0.3930271    -1.4428921    -1.2883220
H           0.5164687    -2.8714770    -0.7674629
19
173_C5H10N2O2_0-2-3-5 (-60,) energy =    -456.4667216
N           1.7214280    -1.1213523    -0.8117756
H           2.5846201    -1.1041290    -1.3455320
C           1.7977295    -0.7970499     0.5192255
N           2.8980806     0.0229412     0.8819399
H           2.7337139     0.2659235     1.8536824
C           4.2898686    -0.3840085     0.6756652
H           4.8716488    -0.0168488     1.5235542
C           4.5783868    -1.8456671     0.2451402
H           3.7706645    -2.5767119     0.3497048
H           5.5026410    -2.2553075     0.6736586
C           4.8724576    -0.0426217    -0.7166842
H           5.9168449     0.2964134    -0.7019915
H           4.2711307     0.6257717    -1.3415429
O           4.7731262    -1.4323182    -1.1333738
O           0.9086703    -1.0439116     1.3255200
C           0.6986765    -2.0545845    -1.2608896
H           0.9293456    -3.0988127    -1.0063306
H           0.5962902    -1.9704162    -2.3461094
H          -0.2477232    -1.7900187    -0.7874395
19
173_C5H10N2O2_0-2-3-5 (-45,) energy =    -456.4702450
N           1.7883819    -1.1830142    -0.7888513
H           2.6822997    -1.2749491    -1.2622393
C           1.7816785    -0.7882630     0.5257760
N           2.9087648    -0.0603960     0.9649025
H           2.7535758     0.1502734     1.9440652
C           4.2950846    -0.4010305     0.6751075
H           4.9030505     0.0060409     1.4855499
C           4.6418401    -1.8538600     0.2526434
H           3.8706410    -2.6179946     0.3913053
H           5.5974717    -2.2162398     0.6530703
C           4.7911082    -0.0477519    -0.7477727
H           5.8083372     0.3627340    -0.7853648
H           4.1186775     0.5638990    -1.3576482
O           4.7719868    -1.4495984    -1.1375784
O           0.8111041    -0.9206086     1.2634342
C           0.6976594    -2.0086899    -1.2851752
H           0.7702542    -3.0553644    -0.9574937
H           0.7033736    -1.9798904    -2.3781824
H          -0.2463553    -1.6036134    -0.9181641
19
173_C5H10N2O2_0-2-3-5 (-30,) energy =    -456.4723327
N           1.8293960    -1.2478001    -0.7366534
H           2.7327878    -1.4066916    -1.1722318
C           1.7681062    -0.7753189     0.5497867
N           2.9204798    -0.1474079     1.0513080
H           2.7647415     0.0688956     2.0273396
C           4.2996036    -0.4169030     0.6955356
H           4.9213955     0.0246225     1.4770336
C           4.7056789    -1.8553442     0.2720555
H           3.9725694    -2.6512942     0.4362472
H           5.6873603    -2.1715684     0.6472674
C           4.7239811    -0.0500031    -0.7476353
H           5.7124484     0.4205692    -0.8216351
H           3.9970042     0.5120645    -1.3417644
O           4.7785841    -1.4549777    -1.1242130
O           0.7434331    -0.7958206     1.2247674
C           0.6879437    -1.9610048    -1.2872207
H           0.6217603    -2.9979632    -0.9292281
H           0.7689011    -1.9689550    -2.3777378
H          -0.2277216    -1.4441707    -0.9962238
19
173_C5H10N2O2_0-2-3-5 (-15,) energy =    -456.4730838
N           1.8724727    -1.3233319    -0.7054714
H           2.7780695    -1.5244772    -1.1170318
C           1.7818553    -0.7674100     0.5447852
N           2.9558514    -0.2447536     1.0955228
H           2.7928541     0.0543420     2.0461653
C           4.3287532    -0.4398169     0.6931383
H           4.9526564     0.0304965     1.4559391
C           4.7889420    -1.8609539     0.2653067
H           4.0923069    -2.6847594     0.4497484
H           5.7910105    -2.1342902     0.6197123
C           4.6989241    -0.0612795    -0.7634099
H           5.6611456     0.4565681    -0.8623285
H           3.9321855     0.4598762    -1.3441889
O           4.8137836    -1.4641688    -1.1338114
O           0.7241201    -0.6683249     1.1605837
C           0.6995778    -1.9341094    -1.3077301
H           0.5292875    -2.9603745    -0.9535298
H           0.8257309    -1.9535732    -2.3940270
H          -0.1795984    -1.3392814    -1.0554707
19
173_C5H10N2O2_0-2-3-5 (0,) energy =    -456.4731019
N           1.8745149    -1.3891873    -0.6742332
H           2.7808505    -1.6131861    -1.0710346
C           1.7708931    -0.7731705     0.5460960
N           2.9572947    -0.3557394     1.1490107
H           2.7768339     0.1083566     2.0264173
C           4.3243839    -0.4594099     0.7030390
H           4.9428433     0.0303643     1.4579117
C           4.8364625    -1.8547870     0.2554528
H           4.1775372    -2.7065797     0.4509958
H           5.8560724    -2.0882197     0.5876005
C           4.6487568    -0.0551168    -0.7599672
H           5.5869452     0.5027540    -0.8724214
H           3.8511055     0.4358985    -1.3248742
O           4.8152227    -1.4496073    -1.1413338
O           0.6972518    -0.5689470     1.1067384
C           0.6883086    -1.9240989    -1.3196962
H           0.4348362    -2.9319681    -0.9628203
H           0.8564784    -1.9664040    -2.3997098
H          -0.1578632    -1.2678468    -1.1096527
19
173_C5H10N2O2_0-2-3-5 (15,) energy =    -456.4730838
N           1.3686680    -1.8280598    -0.7939902
H           2.0413961    -2.4177656    -0.3147223
C           1.7230402    -0.5760119    -1.2277317
N           2.9227244    -0.0498869    -0.7399120
H           3.1254984     0.8330034    -1.1860748
C           4.0144904    -0.7135347    -0.0672645
H           4.8168602     0.0199711     0.0350833
C           3.6794108    -1.4852694     1.2343041
H           2.6685548    -1.3583734     1.6328332
H           4.4175653    -1.3561597     2.0357579
C           4.4723208    -2.1072735    -0.5795844
H           5.5601648    -2.2520808    -0.5784915
H           4.0535756    -2.4470651    -1.5320913
O           3.8506178    -2.7635655     0.5597903
O           1.0170948     0.1021609    -1.9689822
C           0.1673770    -2.4553957    -1.3187266
H          -0.1618528    -3.2314822    -0.6219734
H           0.3257144    -2.9108495    -2.3062221
H          -0.6146160    -1.7007714    -1.4163056
19
173_C5H10N2O2_0-2-3-5 (30,) energy =    -456.4723327
N           1.3245373    -1.7874702    -0.7394372
H           1.9758573    -2.3642883    -0.2158392
C           1.7343392    -0.5746320    -1.2323966
N           2.8787904    -0.0058319    -0.6489081
H           3.1138385     0.8329829    -1.1635160
C           4.0064510    -0.6985237    -0.0575169
H           4.8216059     0.0244976     0.0136990
C           3.7267578    -1.4826567     1.2479949
H           2.7409153    -1.3399415     1.7009315
H           4.5082408    -1.3814810     2.0115586
C           4.4149458    -2.0914947    -0.6107882
H           5.4994298    -2.2526590    -0.6597848
H           3.9499682    -2.4140443    -1.5476459
O           3.8350097    -2.7536992     0.5469396
O           1.1021438     0.0568192    -2.0735699
C           0.1825264    -2.4524200    -1.3463568
H          -0.1994516    -3.2042854    -0.6501988
H           0.4328182    -2.9441963    -2.2967944
H          -0.5954129    -1.7132845    -1.5431528
19
173_C5H10N2O2_0-2-3-5 (45,) energy =    -456.4702450
N           1.2560124    -1.7681987    -0.6799659
H           1.8727216    -2.3205094    -0.0915274
C           1.7384550    -0.6025807    -1.2209855
N           2.8187746     0.0009243    -0.5415465
H           3.0564923     0.8376900    -1.0616796
C           3.9914210    -0.6999681    -0.0360307
H           4.8116065     0.0203391    -0.0115396
C           3.7864527    -1.4938308     1.2766777
H           2.8352178    -1.3364001     1.7949400
H           4.6181684    -1.4168192     1.9887064
C           4.3494504    -2.0913646    -0.6236188
H           5.4282678    -2.2638286    -0.7299291
H           3.8347952    -2.4009850    -1.5385735
O           3.8226882    -2.7575486     0.5561280
O           1.1981377    -0.0196264    -2.1547366
C           0.1994353    -2.4871095    -1.3760733
H          -0.2566186    -3.2000371    -0.6837757
H           0.5628103    -3.0324214    -2.2585504
H          -0.5548839    -1.7718762    -1.7068180
19
173_C5H10N2O2_0-2-3-5 (60,) energy =    -456.4667216
N           1.1769759    -1.7266439    -0.6510325
H           1.7241131    -2.2352602     0.0361671
C           1.7514433    -0.6163121    -1.2164601
N           2.7616864     0.0071556    -0.4383748
H           2.9831018     0.8638749    -0.9357152
C           3.9843581    -0.6863913    -0.0269172
H           4.8029037     0.0353198    -0.0630594
C           3.8714869    -1.4846996     1.2938991
H           2.9688989    -1.3100351     1.8885583
H           4.7603877    -1.4290634     1.9362895
C           4.2882387    -2.0785121    -0.6390420
H           5.3579916    -2.2601337    -0.8073316
H           3.7215299    -2.3803282    -1.5253398
O           3.8228006    -2.7425443     0.5657442
O           1.3304532    -0.0849630    -2.2372015
C           0.2175741    -2.5039642    -1.4217255
H          -0.3405501    -3.1514907    -0.7402006
H           0.6915440    -3.1264226    -2.1939424
H          -0.4727295    -1.8177893    -1.9141354
19
173_C5H10N2O2_0-2-3-5 (75,) energy =    -456.4639393
N           1.1103639    -1.7904542    -0.6446599
H           1.0465646    -1.6992781     0.3586341
C           1.8996596    -0.8818061    -1.2941939
N           2.8293824    -0.2185158    -0.4383459
H           3.1277718     0.6021137    -0.9598222
C           4.0180932    -0.9317917     0.0327485
H           4.7305794    -0.1638236     0.3443409
C           3.9225830    -2.0348001     1.1115661
H           2.9304199    -2.4946898     1.2058601
H           4.3052576    -1.7914310     2.1100856
C           4.7159999    -2.0344838    -0.8045242
H           5.6926900    -1.7998616    -1.2436607
H           4.0698282    -2.4822033    -1.5720099
O           4.8301304    -2.8750164     0.3667736
O           1.7926036    -0.6160749    -2.4833889
C           0.0438042    -2.4865190    -1.3446611
H          -0.8656751    -1.8768404    -1.4297723
H          -0.1946341    -3.4130019    -0.8150064
H           0.3866215    -2.7250773    -2.3525829
19
173_C5H10N2O2_0-2-3-5 (90,) energy =    -456.4623952
N           0.9830042    -1.6286297    -0.6033570
H           0.8565428    -1.3626302     0.3622136
C           1.9536936    -0.9666278    -1.2947007
N           2.8240487    -0.2117225    -0.4320151
H           3.1476287     0.5644483    -1.0080404
C           4.0161792    -0.8966347     0.0822707
H           4.6541889    -0.1204414     0.5133094
C           3.8692947    -2.0871445     1.0526864
H           2.8907971    -2.5830607     1.0052114
H           4.1411982    -1.9162471     2.1012187
C           4.8417659    -1.8970772    -0.7690684
H           5.8456181    -1.5871579    -1.0828558
H           4.2959873    -2.2983996    -1.6328433
O           4.8802600    -2.8302935     0.3372101
O           2.0533498    -0.9691183    -2.5139482
C          -0.0474561    -2.4038703    -1.2707624
H          -0.9598454    -1.8162297    -1.4369869
H          -0.2975068    -3.2880168    -0.6764356
H           0.3410257    -2.7165577    -2.2408547
19
173_C5H10N2O2_0-2-3-5 (105,) energy =    -456.4607200
N           0.8969013    -1.5479926    -0.7028876
H           0.7394758    -1.1971190     0.2304079
C           2.0181912    -1.1075000    -1.3329240
N           2.8310113    -0.2892543    -0.4543929
H           3.1308541     0.4970343    -1.0313552
C           4.0452201    -0.9238676     0.0718918
H           4.6295259    -0.1279672     0.5417892
C           3.8955925    -2.1403258     1.0070227
H           2.9257795    -2.6504371     0.9171557
H           4.1252418    -1.9888728     2.0687986
C           4.9475169    -1.8747990    -0.7625765
H           5.9606078    -1.5234625    -0.9929648
H           4.4721358    -2.2583531    -1.6719606
O           4.9441837    -2.8473220     0.3127649
O           2.2865096    -1.3250586    -2.5063136
C          -0.1023947    -2.3772308    -1.3504236
H          -1.0524156    -1.8408467    -1.4625816
H          -0.2802772    -3.2960854    -0.7804782
H           0.2768083    -2.6346015    -2.3402343
19
173_C5H10N2O2_0-2-3-5 (120,) energy =    -456.4627892
N           0.6642344    -1.5129788    -0.7146038
H           0.4066574    -0.7716828    -0.0783897
C           1.9321192    -1.5164479    -1.2541925
N           2.8053463    -0.5432765    -0.7242439
H           2.3235971     0.1397287    -0.1474255
C           4.0345155    -0.9846269    -0.0706895
H           4.4297095    -0.1176100     0.4650088
C           4.1002901    -2.2662308     0.7990247
H           3.2866274    -2.9770292     0.5985380
H           4.2173310    -2.1390351     1.8827955
C           5.1388400    -1.6790614    -0.8958549
H           6.0521285    -1.1064603    -1.0963518
H           4.7604168    -2.1346043    -1.8153319
O           5.3312964    -2.6578904     0.1584776
O           2.2999928    -2.3463540    -2.0744807
C          -0.4147042    -2.2742474    -1.3241323
H          -1.0442209    -1.6571620    -1.9793854
H          -1.0428774    -2.7220227    -0.5474553
H           0.0414928    -3.0667541    -1.9182300
19
173_C5H10N2O2_0-2-3-5 (135,) energy =    -456.4666493
N           0.5663410    -1.4657727    -0.6850869
H           0.2833620    -0.5883861    -0.2690573
C           1.8849916    -1.6071585    -1.0723280
N           2.7494501    -0.6232987    -0.5741780
H           2.2846222     0.0648306     0.0082232
C           4.0408600    -1.0080182    -0.0165286
H           4.4138373    -0.1360482     0.5269852
C           4.2463814    -2.3067664     0.8034625
H           3.4827614    -3.0715823     0.6151022
H           4.4112359    -2.2020077     1.8832223
C           5.1403942    -1.5965134    -0.9266840
H           5.9940913    -0.9515784    -1.1673684
H           4.7410827    -2.0612328    -1.8325620
O           5.4702699    -2.5786379     0.0879270
O           2.2809513    -2.5530202    -1.7420763
C          -0.4772686    -2.2321249    -1.3500600
H          -0.9012394    -1.7065060    -2.2168081
H          -1.2805668    -2.4541110    -0.6408885
H          -0.0313331    -3.1660220    -1.6932638
19
173_C5H10N2O2_0-2-3-5 (150,) energy =    -456.4696089
N           0.5021427    -1.4293954    -0.7115074
H           0.2435171    -0.4785557    -0.4805285
C           1.8445605    -1.6849601    -0.9332338
N           2.7031838    -0.7112574    -0.4242420
H           2.2542468    -0.0258457     0.1716524
C           4.0443769    -1.0537304     0.0233236
H           4.4241960    -0.1756602     0.5521389
C           4.3648755    -2.3536497     0.8041124
H           3.6196923    -3.1448734     0.6652281
H           4.6135017    -2.2521767     1.8680660
C           5.0947391    -1.5823989    -0.9780103
H           5.9013434    -0.8976822    -1.2672502
H           4.6506520    -2.0474731    -1.8626584
O           5.5381837    -2.5662674    -0.0115260
O           2.2454379    -2.7005608    -1.4894032
C          -0.5033643    -2.2049250    -1.4241057
H          -0.7501779    -1.7797081    -2.4069435
H          -1.4153465    -2.2635941    -0.8223930
H          -0.1044324    -3.2085359    -1.5731011
19
173_C5H10N2O2_0-2-3-5 (165,) energy =    -456.4711720
N           0.5012313    -1.3793157    -0.7168670
H           0.2800713    -0.3953532    -0.6328468
C           1.8434699    -1.7140641    -0.7831958
N           2.6885980    -0.7503533    -0.2458664
H           2.2469244    -0.0688121     0.3576443
C           4.0754193    -1.0307563     0.0729435
H           4.4594006    -0.1418880     0.5803658
C           4.5287837    -2.3216335     0.8025390
H           3.8127666    -3.1457788     0.7199176
H           4.8709417    -2.2171334     1.8399052
C           5.0568419    -1.4948808    -1.0263977
H           5.7993124    -0.7660672    -1.3742203
H           4.5612113    -1.9701549    -1.8780387
O           5.6317118    -2.4665810    -0.1208582
O           2.2441173    -2.7721392    -1.2551521
C          -0.4678808    -2.1882325    -1.4419409
H          -0.5196433    -1.9372359    -2.5107133
H          -1.4572060    -2.0529075    -0.9953023
H          -0.1726123    -3.2340257    -1.3526372
19
173_C5H10N2O2_0-2-3-5 (180,) energy =    -456.4711997
N           0.4831849    -1.3375732    -0.7677541
H           0.3206602    -0.3392106    -0.7855698
C           1.8025376    -1.7501201    -0.6759112
N           2.6381869    -0.8140126    -0.0896554
H           2.2056537    -0.0783234     0.4505051
C           4.0543832    -1.0253994     0.1110005
H           4.4366471    -0.1228651     0.5949457
C           4.6210857    -2.2976752     0.7922328
H           3.9360581    -3.1503822     0.7554408
H           5.0386316    -2.1847995     1.8006419
C           4.9669517    -1.4410132    -1.0659996
H           5.6450073    -0.6775647    -1.4672587
H           4.4285645    -1.9361241    -1.8802767
O           5.6547957    -2.3872336    -0.2158774
O           2.1895490    -2.8443351    -1.0725070
C          -0.4619821    -2.1516488    -1.5173808
H          -0.3816454    -2.0079349    -2.6040295
H          -1.4797126    -1.9077614    -1.1990682
H          -0.2592137    -3.2007344    -1.2996062
