24
080_C12H10O2_0-11-12-19 (-165,) energy =    -613.7297552
C          -0.0150988     1.2457550    -0.4853605
O           0.0589687     2.3860777    -1.2284102
C          -1.2471405     0.6327192    -0.2693279
H          -2.1332016     1.0832210    -0.7056000
C          -1.3196539    -0.5344238     0.4946458
H           0.9966902     2.6447050    -1.2597785
H          -2.2838583    -1.0074658     0.6570784
C          -0.1651213    -1.0887994     1.0464708
H          -0.2213793    -1.9921750     1.6464265
C           1.0765209    -0.4786183     0.8379218
H           1.9796886    -0.8949659     1.2709024
C           1.1466265     0.6753991     0.0651663
O           2.2979134     1.4138304    -0.1834603
C           6.1538135    -0.0863733     0.3247986
H           7.1677032    -0.4560585     0.4476828
C           5.7432624     1.0691560     0.9917290
H           6.4359443     1.6027877     1.6366565
C           4.4399067     1.5454812     0.8400145
H           4.0989475     2.4407565     1.3502239
C           3.5551391     0.8599799     0.0089902
C           3.9539035    -0.2929361    -0.6717354
H           3.2515142    -0.8050213    -1.3216739
C           5.2561542    -0.7640099    -0.5042851
H           5.5715149    -1.6599685    -1.0320126
24
080_C12H10O2_0-11-12-19 (-150,) energy =    -613.7303668
C           0.0234670     1.2118414    -0.4922212
O           0.1378925     2.3446300    -1.2399341
C          -1.2024438     0.5529374    -0.4060899
H          -2.0496350     0.9624144    -0.9472717
C          -1.3161435    -0.6067082     0.3625633
H           1.0619584     2.6415294    -1.1629601
H          -2.2737205    -1.1160107     0.4226002
C          -0.2115679    -1.1103628     1.0514577
H          -0.3024641    -2.0083730     1.6551227
C           1.0193512    -0.4524983     0.9759378
H           1.8848255    -0.8255197     1.5138214
C           1.1337464     0.6942360     0.1961408
O           2.2802623     1.4749302     0.0949953
C           6.1500750    -0.0762710     0.1968630
H           7.1667312    -0.4578181     0.2183187
C           5.8233690     1.0936447     0.8853037
H           6.5852046     1.6276524     1.4465861
C           4.5171225     1.5833410     0.8648939
H           4.2408620     2.4886966     1.3960809
C           3.5402285     0.8973828     0.1429806
C           3.8530603    -0.2699682    -0.5581909
H           3.0834818    -0.7873457    -1.1215747
C           5.1614980    -0.7527978    -0.5214532
H           5.4084334    -1.6602266    -1.0658852
24
080_C12H10O2_0-11-12-19 (-135,) energy =    -613.7307142
C           0.0976166     1.1844906    -0.4982839
O           0.2762681     2.3015189    -1.2553352
C          -1.1195938     0.5023705    -0.5361118
H          -1.9069785     0.8811842    -1.1801174
C          -1.2983555    -0.6413293     0.2424552
H           1.1740060     2.6282416    -1.0657402
H          -2.2474159    -1.1685872     0.2055048
C          -0.2716540    -1.1078553     1.0670455
H          -0.4164692    -1.9940192     1.6775497
C           0.9459741    -0.4255771     1.1163046
H           1.7540508    -0.7654432     1.7566065
C           1.1277582     0.7063011     0.3269296
O           2.2718478     1.4983957     0.3575542
C           6.1391217    -0.0409079     0.0635566
H           7.1546235    -0.4183217    -0.0128992
C           5.8739530     1.1269196     0.7824033
H           6.6832452     1.6638014     1.2697531
C           4.5706247     1.6107623     0.8877143
H           4.3425042     2.5136928     1.4453603
C           3.5302300     0.9215462     0.2619969
C           3.7793273    -0.2439747    -0.4664512
H           2.9637698    -0.7677404    -0.9533473
C           5.0886029    -0.7195166    -0.5566352
H           5.2848004    -1.6258186    -1.1232545
24
080_C12H10O2_0-11-12-19 (-120,) energy =    -613.7306930
C           0.1920188     1.1343360    -0.4904081
O           0.4519717     2.2259420    -1.2596402
C          -1.0140942     0.4458799    -0.6404419
H          -1.7257960     0.7990508    -1.3799866
C          -1.2771349    -0.6706139     0.1525720
H           1.3101715     2.5794732    -0.9640414
H          -2.2163722    -1.2022885     0.0286437
C          -0.3497832    -1.1051177     1.1038869
H          -0.5629226    -1.9703539     1.7241912
C           0.8539925    -0.4163593     1.2635720
H           1.5886385    -0.7279856     1.9999365
C           1.1211294     0.6898563     0.4624031
O           2.2654571     1.4712248     0.6065020
C           6.1154636     0.0058899    -0.0709159
H           7.1264239    -0.3519838    -0.2422478
C           5.8948684     1.1589472     0.6868608
H           6.7347958     1.7035555     1.1096421
C           4.5989379     1.6184358     0.9128213
H           4.4060770     2.5092041     1.5025568
C           3.5177535     0.9192774     0.3709384
C           3.7206182    -0.2323690    -0.3919516
H           2.8752552    -0.7665922    -0.8113237
C           5.0256019    -0.6821304    -0.6052128
H           5.1850897    -1.5778272    -1.1996087
24
080_C12H10O2_0-11-12-19 (-105,) energy =    -613.7303944
C           0.3068995     1.0796077    -0.4760388
O           0.6670112     2.1379344    -1.2510927
C          -0.8889773     0.4037392    -0.7312810
H          -1.5106309     0.7396148    -1.5552321
C          -1.2576546    -0.6767344     0.0695109
H           1.4777343     2.5113980    -0.8618446
H          -2.1886152    -1.1977683    -0.1357990
C          -0.4486728    -1.0880080     1.1327126
H          -0.7451438    -1.9249940     1.7574646
C           0.7450170    -0.4130368     1.3943895
H           1.3925630    -0.7051198     2.2157230
C           1.1175518     0.6580973     0.5885330
O           2.2660999     1.4073999     0.8371776
C           6.0845355     0.0769301    -0.2086776
H           7.0872391    -0.2465781    -0.4720301
C           5.8951281     1.2130613     0.5830474
H           6.7514304     1.7786436     0.9404803
C           4.6106848     1.6295615     0.9248400
H           4.4430926     2.5065040     1.5424843
C           3.5073708     0.9036358     0.4675103
C           3.6784778    -0.2329723    -0.3243020
H           2.8176257    -0.7910662    -0.6749257
C           4.9739303    -0.6379968    -0.6563896
H           5.1079903    -1.5220934    -1.2740072
24
080_C12H10O2_0-11-12-19 (-90,) energy =    -613.7297836
C           0.4886738     1.3027574     0.4318777
O           1.0183315     2.5448071     0.6010549
C          -0.7692967     1.1622084    -0.1589248
H          -1.2974943     2.0557721    -0.4763725
C          -1.3198952    -0.1087857    -0.3223803
H           1.8364200     2.4443808     1.1178914
H          -2.2995755    -0.2079279    -0.7814339
C          -0.6312780    -1.2470652     0.1055880
H          -1.0681952    -2.2333191    -0.0173759
C           0.6272976    -1.1112782     0.6949029
H           1.1896017    -1.9736614     1.0401290
C           1.1801236     0.1554245     0.8506192
O           2.4081299     0.3342736     1.4842763
C           6.0102094     0.4777062    -0.6263914
H           6.9590419     0.5206120    -1.1529569
C           5.9665871     0.6295621     0.7624980
H           6.8833820     0.7900084     1.3234338
C           4.7516187     0.5756227     1.4410064
H           4.6975749     0.6870039     2.5196304
C           3.5701801     0.3686175     0.7225117
C           3.5961817     0.2115686    -0.6640999
H           2.6766742     0.0464837    -1.2142630
C           4.8239124     0.2694965    -1.3291354
H           4.8444505     0.1490690    -2.4089998
24
080_C12H10O2_0-11-12-19 (-75,) energy =    -613.7289063
C           0.6026502     1.2136097     0.3765579
O           1.2362912     2.4149112     0.4783378
C          -0.6635076     1.1619259    -0.2111759
H          -1.1027432     2.0856393    -0.5747370
C          -1.3375945    -0.0550078    -0.3094509
H           2.0466140     2.2897121     0.9995054
H          -2.3235048    -0.0817694    -0.7649999
C          -0.7615631    -1.2298175     0.1800416
H          -1.2914611    -2.1746641     0.1080908
C           0.5074397    -1.1851854     0.7601315
H           0.9874318    -2.0784052     1.1482736
C           1.1831681     0.0271320     0.8549968
O           2.4228256     0.0867070     1.4856196
C           5.9842879     0.6434352    -0.6234678
H           6.9225277     0.7904351    -1.1502226
C           5.9338010     0.7457014     0.7694822
H           6.8347806     0.9712441     1.3335761
C           4.7313501     0.5612690     1.4481754
H           4.6720841     0.6324244     2.5299535
C           3.5700909     0.2706238     0.7251530
C           3.6049287     0.1587236    -0.6662583
H           2.7016048    -0.0744477    -1.2189673
C           4.8184919     0.3503580    -1.3310309
H           4.8455707     0.2656703    -2.4141000
24
080_C12H10O2_0-11-12-19 (-60,) energy =    -613.7277446
C           0.6929045     1.1248222     0.2951849
O           1.4048435     2.2875506     0.2957392
C          -0.5976037     1.1465351    -0.2415600
H          -0.9676358     2.0851680    -0.6423432
C          -1.3822065    -0.0052245    -0.2413018
H           2.2714807     2.1386733     0.7065252
H          -2.3851827     0.0327951    -0.6568694
C          -0.8885777    -1.1972655     0.2936397
H          -1.4985464    -2.0954161     0.2983890
C           0.4036514    -1.2310806     0.8174102
H           0.8233460    -2.1404410     1.2365722
C           1.1900356    -0.0816189     0.8212167
O           2.4444937    -0.1427715     1.4186918
C           5.9809516     0.8018551    -0.5857178
H           6.9137523     1.0445756    -1.0859792
C           5.9043662     0.8223299     0.8093544
H           6.7787184     1.0792809     1.4011278
C           4.7081261     0.5171261     1.4556955
H           4.6283995     0.5238703     2.5383433
C           3.5801321     0.1848259     0.6975081
C           3.6443544     0.1533420    -0.6987987
H           2.7672369    -0.1152107    -1.2777340
C           4.8491071     0.4677336    -1.3305310
H           4.8980055     0.4455707    -2.4158490
24
080_C12H10O2_0-11-12-19 (-45,) energy =    -613.7262767
C           0.7435933     1.0397503     0.2187783
O           1.5033251     2.1706614     0.1305033
C          -0.5761373     1.1241045    -0.2383528
H          -0.9028396     2.0701493    -0.6591445
C          -1.4402477     0.0368921    -0.1379414
H           2.4251625     1.9767964     0.3644931
H          -2.4625390     0.1311481    -0.4928639
C          -0.9944244    -1.1639656     0.4183947
H          -1.6605128    -2.0174518     0.5003792
C           0.3230008    -1.2659100     0.8599210
H           0.7077077    -2.1854974     1.2901780
C           1.1901400    -0.1767942     0.7714429
O           2.4637055    -0.3545350     1.2993168
C           5.9851450     0.9297122    -0.5286138
H           6.9152400     1.2540295    -0.9857644
C           5.8671414     0.8709115     0.8626540
H           6.7070119     1.1482943     1.4936892
C           4.6735028     0.4619937     1.4545607
H           4.5610502     0.4080692     2.5327584
C           3.5890376     0.1039605     0.6453568
C           3.6978251     0.1494809    -0.7500269
H           2.8563265    -0.1453123    -1.3685801
C           4.8981736     0.5697533    -1.3264424
H           4.9803401     0.6074814    -2.4092150
24
080_C12H10O2_0-11-12-19 (-30,) energy =    -613.7242125
C           0.7682449     0.9760706     0.1352928
O           1.5557042     2.0788231    -0.0446282
C          -0.5760753     1.1083435    -0.2344237
H          -0.8794768     2.0552502    -0.6706441
C          -1.4876636     0.0769291    -0.0335633
H           2.4886930     1.8603544     0.1087887
H          -2.5253253     0.2130139    -0.3242676
C          -1.0648440    -1.1231395     0.5427660
H          -1.7641282    -1.9376779     0.7054866
C           0.2721359    -1.2761576     0.8973237
H           0.6399550    -2.1992866     1.3347534
C           1.1905875    -0.2402540     0.7092739
O           2.4827692    -0.5186324     1.1390184
C           6.0046870     1.0273866    -0.4657718
H           6.9364075     1.4142013    -0.8676418
C           5.8325249     0.9023612     0.9154303
H           6.6313756     1.1911410     1.5928484
C           4.6362440     0.4135137     1.4379508
H           4.4824798     0.3082090     2.5070923
C           3.6045999     0.0421057     0.5686966
C           3.7710952     0.1492975    -0.8187890
H           2.9714120    -0.1632253    -1.4830661
C           4.9715561     0.6514547    -1.3257657
H           5.0977394     0.7384639    -2.4013756
24
080_C12H10O2_0-11-12-19 (-15,) energy =    -613.7219685
C           0.7822890     0.9265351     0.0646170
O           1.5948391     1.9920644    -0.2123293
C          -0.5826323     1.1198103    -0.1872565
H          -0.8743468     2.0758399    -0.6115553
C          -1.5241418     0.1395749     0.1049275
H           2.5275505     1.7500506    -0.1011342
H          -2.5747689     0.3248131    -0.0988786
C          -1.1110664    -1.0730597     0.6618459
H          -1.8313497    -1.8507479     0.8972621
C           0.2416142    -1.2861276     0.9047081
H           0.6009292    -2.2210187     1.3239392
C           1.1936037    -0.3015524     0.6221167
O           2.4974940    -0.6764585     0.9262029
C           6.0268873     1.1080026    -0.3857750
H           6.9609746     1.5531118    -0.7153880
C           5.7677074     0.9482816     0.9778788
H           6.5005957     1.2687723     1.7130950
C           4.5674782     0.3832152     1.4083263
H           4.3472020     0.2491399     2.4624744
C           3.6218583    -0.0275918     0.4635398
C           3.8788121     0.1117070    -0.9075265
H           3.1446830    -0.2357249    -1.6281215
C           5.0800543     0.6901804    -1.3230333
H           5.2766804     0.8030224    -2.3855371
24
080_C12H10O2_0-11-12-19 (0,) energy =    -613.7205318
C           0.8074718     0.9115112     0.1213517
O           1.6539400     1.9372888    -0.2031906
C          -0.5566514     1.2313818     0.1425865
H          -0.8253269     2.2573115    -0.0908747
C          -1.5245682     0.2809970     0.4472988
H           2.5763461     1.6406142    -0.1694226
H          -2.5732350     0.5636537     0.4539709
C          -1.1391056    -1.0288157     0.7413355
H          -1.8792157    -1.7860943     0.9819820
C           0.2112124    -1.3621097     0.7257741
H           0.5473064    -2.3699071     0.9501455
C           1.1899992    -0.4120223     0.4191762
O           2.4878170    -0.9130311     0.4524985
C           6.0053656     1.1926881    -0.3005726
H           6.9353605     1.7197131    -0.4925774
C           5.4399268     1.2125917     0.9764964
H           5.9303349     1.7523874     1.7816633
C           4.2458521     0.5348743     1.2300853
H           3.7963853     0.5290298     2.2182250
C           3.6148665    -0.1569752     0.1896911
C           4.1775915    -0.1881113    -1.0904791
H           3.6743260    -0.7447968    -1.8746682
C           5.3731035     0.4912193    -1.3299990
H           5.8110186     0.4696274    -2.3239613
24
080_C12H10O2_0-11-12-19 (15,) energy =    -613.7219689
C           0.7841811     0.9375449     0.1126703
O           1.5868883     1.9687740    -0.2929273
C          -0.5485741     1.2738589     0.3855712
H          -0.8213684     2.3205957     0.2905035
C          -1.4842207     0.3115308     0.7477962
H           2.5087702     1.6764928    -0.3676749
H          -2.5102339     0.6065573     0.9475959
C          -1.0974847    -1.0270363     0.8472750
H          -1.8135527    -1.7933030     1.1285633
C           0.2248606    -1.3752297     0.5937586
H           0.5643688    -2.4033680     0.6745961
C           1.1696916    -0.4144978     0.2197557
O           2.4421333    -0.9311959     0.0027137
C           6.0351937     1.1691084    -0.2004856
H           6.9850220     1.6926696    -0.2552720
C           5.2165803     1.3173827     0.9209128
H           5.5294884     1.9519386     1.7453749
C           3.9962863     0.6432084     1.0016822
H           3.3617039     0.7350355     1.8779183
C           3.5892005    -0.1701896    -0.0651601
C           4.4058076    -0.3281793    -1.1892157
H           4.0710245    -0.9759397    -1.9929703
C           5.6273763     0.3421649    -1.2502224
H           6.2600180     0.2199903    -2.1249837
24
080_C12H10O2_0-11-12-19 (30,) energy =    -613.7242125
C           0.7560144     0.9519867     0.0259408
O           1.5275675     1.9628382    -0.4754791
C          -0.5410940     1.3013571     0.4219449
H          -0.8196311     2.3476204     0.3399624
C          -1.4403102     0.3451784     0.8827009
H           2.4429952     1.6647864    -0.5975121
H          -2.4418853     0.6467178     1.1754304
C          -1.0518893    -0.9941795     0.9623609
H          -1.7419935    -1.7521172     1.3204608
C           0.2402263    -1.3533007     0.5907255
H           0.5819559    -2.3820054     0.6522881
C           1.1446775    -0.4000883     0.1160011
O           2.3873216    -0.9037608    -0.2501389
C           6.0233734     1.1253349    -0.0716248
H           6.9833404     1.6314491    -0.0323273
C           5.1048573     1.2801704     0.9678909
H           5.3493275     1.9030019     1.8238922
C           3.8693340     0.6303937     0.9283797
H           3.1588652     0.7311155     1.7429498
C           3.5502661    -0.1685514    -0.1780779
C           4.4663387    -0.3320279    -1.2230373
H           4.1957063    -0.9662721    -2.0610664
C           5.6998129     0.3145208    -1.1628878
H           6.4086962     0.1867729    -1.9762808
24
080_C12H10O2_0-11-12-19 (45,) energy =    -613.7262767
C           0.7170669     0.9647204    -0.0710650
O           1.4495919     1.9544456    -0.6608016
C          -0.5446408     1.3160496     0.4213206
H          -0.8485527     2.3543770     0.3301329
C          -1.3834196     0.3611093     0.9899471
H           2.3441837     1.6369149    -0.8632738
H          -2.3614896     0.6584841     1.3572073
C          -0.9692660    -0.9693321     1.0833329
H          -1.6159098    -1.7210191     1.5256598
C           0.2924066    -1.3276565     0.6135096
H           0.6520631    -2.3501154     0.6766314
C           1.1328206    -0.3773144     0.0334341
O           2.3433665    -0.8434718    -0.4660700
C           6.0104116     1.0770805     0.0389756
H           6.9765154     1.5584115     0.1581672
C           5.0308847     1.2142007     1.0235460
H           5.2332948     1.7991548     1.9165361
C           3.7856574     0.5984747     0.8821034
H           3.0278517     0.6912628     1.6533032
C           3.5217391    -0.1526235    -0.2699151
C           4.4975917    -0.2970848    -1.2628471
H           4.2661603    -0.8925511    -2.1402993
C           5.7382514     0.3170270    -1.1017513
H           6.4934383     0.2029341    -1.8745470
24
080_C12H10O2_0-11-12-19 (60,) energy =    -613.7277445
C           0.6595650     0.9966072    -0.1856097
O           1.3338238     1.9691807    -0.8626660
C          -0.5628707     1.3343156     0.4020900
H          -0.9119367     2.3572923     0.3008580
C          -1.3097808     0.3733634     1.0810996
H           2.1527989     1.6013848    -1.2313860
H          -2.2607251     0.6530260     1.5256245
C          -0.8455181    -0.9397806     1.1849542
H          -1.4264950    -1.6914996     1.7104617
C           0.3804687    -1.2812944     0.6141849
H           0.7760289    -2.2902892     0.6791120
C           1.1288084    -0.3243868    -0.0670647
O           2.3094114    -0.7261889    -0.6825841
C           6.0210119     0.9950909     0.1422106
H           6.9968372     1.4290320     0.3391288
C           4.9894413     1.1317700     1.0719895
H           5.1605654     1.6708564     1.9998210
C           3.7305308     0.5781543     0.8308800
H           2.9318587     0.6767889     1.5582221
C           3.5091929    -0.1128338    -0.3642480
C           4.5353364    -0.2580102    -1.3042493
H           4.3343208    -0.8078639    -2.2184613
C           5.7875387     0.2956944    -1.0447571
H           6.5826853     0.1806411    -1.7763279
24
080_C12H10O2_0-11-12-19 (75,) energy =    -613.7289048
C           0.5582941     1.0338558    -0.2907742
O           1.1420539     1.9900849    -1.0653222
C          -0.6318277     1.3341106     0.3758458
H          -1.0531347     2.3275959     0.2582430
C          -1.2557999     0.3641896     1.1601559
H           1.8910830     1.5874957    -1.5352561
H          -2.1832297     0.6087548     1.6703794
C          -0.7053020    -0.9136813     1.2845333
H          -1.1963969    -1.6689016     1.8905105
C           0.4887907    -1.2162418     0.6274906
H           0.9473494    -2.1974643     0.7036090
C           1.1148290    -0.2485390    -0.1515759
O           2.2736726    -0.5632526    -0.8558515
C           6.0323759     0.8783952     0.2560864
H           7.0194682     1.2434799     0.5239200
C           4.9617769     1.0324017     1.1368536
H           5.1126501     1.5174768     2.0975228
C           3.6870304     0.5672787     0.8049213
H           2.8579596     0.6835599     1.4940863
C           3.4934815    -0.0531667    -0.4308892
C           4.5578661    -0.2171123    -1.3230880
H           4.3760465    -0.7118911    -2.2722676
C           5.8232552     0.2494501    -0.9743454
H           6.6487192     0.1206882    -1.6692426
24
080_C12H10O2_0-11-12-19 (90,) energy =    -613.7297834
C           0.4363544     1.0846846    -0.3724754
O           0.9082757     2.0432464    -1.2152464
C          -0.7429796     1.3110335     0.3411040
H          -1.2572678     2.2576539     0.2083522
C          -1.2354115     0.3254309     1.1963522
H           1.6657950     1.6632807    -1.6930394
H          -2.1542070     0.5099464     1.7459936
C          -0.5670265    -0.8929979     1.3434960
H          -0.9590826    -1.6595397     2.0048770
C           0.6132023    -1.1227468     0.6335151
H           1.1574058    -2.0581247     0.7228251
C           1.1087619    -0.1369717    -0.2132403
O           2.2524871    -0.3514956    -0.9796779
C           6.0628830     0.7372034     0.3410688
H           7.0632631     1.0131518     0.6612031
C           4.9696340     0.9591341     1.1777764
H           5.1150099     1.4101756     2.1557607
C           3.6770907     0.6083898     0.7787336
H           2.8305287     0.7802608     1.4338844
C           3.4910591     0.0313554    -0.4784034
C           4.5776176    -0.1995964    -1.3274855
H           4.3995339    -0.6566432    -2.2960736
C           5.8590612     0.1550895    -0.9133463
H           6.7019650    -0.0259353    -1.5748969
24
080_C12H10O2_0-11-12-19 (105,) energy =    -613.7303946
C           0.3144435     1.1294976    -0.4376366
O           0.6751940     2.0966165    -1.3236485
C          -0.8693078     1.2605663     0.2928416
H          -1.4810348     2.1438023     0.1383912
C          -1.2390052     0.2641028     1.1955766
H           1.4747914     1.7790219    -1.7797567
H          -2.1605230     0.3736929     1.7604747
C          -0.4432302    -0.8713663     1.3732559
H          -0.7407423    -1.6473281     2.0719080
C           0.7382429    -1.0088685     0.6423911
H           1.3755032    -1.8810391     0.7539324
C           1.1119865    -0.0093057    -0.2502084
O           2.2475918    -0.1183839    -1.0507993
C           6.0979149     0.5848443     0.4063260
H           7.1086088     0.7636192     0.7612391
C           5.0033430     0.8957598     1.2127406
H           5.1581445     1.3214425     2.2005985
C           3.6978381     0.6702545     0.7686047
H           2.8496310     0.9139657     1.3984203
C           3.5004522     0.1251321    -0.5010181
C           4.5873412    -0.1929419    -1.3201319
H           4.3993301    -0.6196066    -2.3005588
C           5.8820959     0.0399926    -0.8625424
H           6.7256780    -0.2088343    -1.5007831
24
080_C12H10O2_0-11-12-19 (120,) energy =    -613.7306930
C           0.1992221     1.1560571    -0.4874544
O           0.4595691     2.1245161    -1.4068048
C          -0.9960439     1.1821901     0.2348465
H          -1.6991684     1.9876612     0.0477718
C          -1.2595028     0.1851363     1.1735637
H           1.3090293     1.8940143    -1.8240603
H          -2.1904195     0.2133865     1.7328588
C          -0.3434568    -0.8471279     1.3949034
H          -0.5571040    -1.6251280     2.1214643
C           0.8495283    -0.8825655     0.6705806
H           1.5754146    -1.6767210     0.8170555
C           1.1172080     0.1203971    -0.2563888
O           2.2498777     0.1198767    -1.0673803
C           6.1271031     0.4354053     0.4481292
H           7.1447632     0.5172561     0.8184466
C           5.0539916     0.8349586     1.2452870
H           5.2334684     1.2344085     2.2398904
C           3.7405938     0.7346226     0.7808946
H           2.9083226     1.0491584     1.4008323
C           3.5121391     0.2222978    -0.4976563
C           4.5763300    -0.1823224    -1.3071220
H           4.3640089    -0.5778406    -2.2955282
C           5.8809792    -0.0713987    -0.8305285
H           6.7075437    -0.3872688    -1.4612771
24
080_C12H10O2_0-11-12-19 (135,) energy =    -613.7307139
C           0.1169315     1.1850130    -0.5471453
O           0.2985197     2.1484656    -1.4913635
C          -1.0935192     1.1036317     0.1431581
H          -1.8732536     1.8221806    -0.0891126
C          -1.2754089     0.1140594     1.1094062
H           1.1898583     2.0149290    -1.8606009
H          -2.2191576     0.0591249     1.6445606
C          -0.2589057    -0.8027654     1.3887334
H          -0.4065741    -1.5764701     2.1360913
C           0.9517677    -0.7325836     0.6959754
H           1.7521148    -1.4397764     0.8904344
C           1.1368942     0.2650768    -0.2567456
O           2.2732152     0.3770950    -1.0526598
C           6.1591630     0.2973984     0.4659833
H           7.1794607     0.2808587     0.8378144
C           5.1259080     0.7846478     1.2683115
H           5.3404594     1.1547597     2.2672709
C           3.8109123     0.8116503     0.8007221
H           3.0088014     1.1958851     1.4215985
C           3.5382363     0.3359356    -0.4839697
C           4.5612573    -0.1544008    -1.2975923
H           4.3154445    -0.5159833    -2.2911329
C           5.8706282    -0.1682145    -0.8188498
H           6.6662301    -0.5501140    -1.4527858
24
080_C12H10O2_0-11-12-19 (150,) energy =    -613.7303669
C           0.0327859     1.1813621    -0.5639598
O           0.1473971     2.1404311    -1.5243965
C          -1.1872848     0.9807235     0.0807173
H          -2.0299861     1.6047570    -0.1998473
C          -1.3009710    -0.0042873     1.0632516
H           1.0669731     2.1123284    -1.8430777
H          -2.2539518    -0.1527797     1.5629758
C          -0.2022844    -0.7954314     1.4028228
H          -0.2932323    -1.5664355     2.1620184
C           1.0226533    -0.6054778     0.7569981
H           1.8833506    -1.2191215     1.0022586
C           1.1372873     0.3877920    -0.2106928
O           2.2769606     0.6287831    -0.9704667
C           6.1607332     0.1638065     0.4757258
H           7.1808897     0.0520658     0.8312669
C           5.1912753     0.7448939     1.2963778
H           5.4563406     1.0923009     2.2913044
C           3.8786015     0.8958954     0.8485090
H           3.1237694     1.3542051     1.4789806
C           3.5420219     0.4482969    -0.4315491
C           4.4998134    -0.1342159    -1.2617993
H           4.2055304    -0.4686042    -2.2516092
C           5.8106862    -0.2707109    -0.8041628
H           6.5575037    -0.7235316    -1.4505573
24
080_C12H10O2_0-11-12-19 (165,) energy =    -613.7297553
C          -0.0167727     1.1688090    -0.5794002
O           0.0545259     2.1260508    -1.5471383
C          -1.2439708     0.8482291    -0.0034704
H          -2.1288020     1.3776069    -0.3428889
C          -1.3133444    -0.1350547     0.9862641
H           0.9893804     2.1973321    -1.8082276
H          -2.2736567    -0.3782056     1.4318171
C          -0.1603642    -0.8016383     1.3997920
H          -0.2139760    -1.5710877     2.1641808
C           1.0763152    -0.4891496     0.8249995
H           1.9777460    -1.0087226     1.1316235
C           1.1435642     0.4999624    -0.1501416
O           2.2891441     0.8784156    -0.8406956
C           6.1550876     0.0292352     0.4673316
H           7.1714002    -0.1783535     0.7894609
C           5.2782788     0.7149595     1.3119080
H           5.6124492     1.0464439     2.2912549
C           3.9730101     0.9904217     0.9041920
H           3.2870336     1.5318603     1.5478678
C           3.5499685     0.5621847    -0.3564435
C           4.4137225    -0.1237698    -1.2089973
H           4.0543607    -0.4380285    -2.1837748
C           5.7203497    -0.3848463    -0.7928932
H           6.3966545    -0.9168866    -1.4562522
24
080_C12H10O2_0-11-12-19 (180,) energy =    -613.7292740
C          -0.0316371     1.2273821    -0.5489113
O           0.0086526     2.2838555    -1.4104420
C          -1.2551867     0.7203391    -0.1200077
H          -2.1650565     1.1848714    -0.4871826
C          -1.2902910    -0.3625238     0.7630080
H           0.9469354     2.4775211    -1.5805941
H          -2.2490092    -0.7521717     1.0929777
C          -0.1056066    -0.9389509     1.2178239
H          -0.1310842    -1.7804360     1.9037995
C           1.1300037    -0.4365904     0.7925305
H           2.0580369    -0.8774912     1.1402281
C           1.1597480     0.6401957    -0.0854538
O           2.3064072     1.2422881    -0.5908707
C           6.1223666    -0.0813526     0.4394327
H           7.1257649    -0.4100644     0.6945888
C           5.4887611     0.8949927     1.2114860
H           5.9977312     1.3283432     2.0679945
C           4.2006408     1.3232953     0.8862825
H           3.6928649     2.0854467     1.4691197