24
080_C12H10O2_11-12-19-17 (-165,) energy =    -613.7306677
C           0.1848449     1.1325898    -0.5088178
O           0.4451510     2.2217979    -1.2811617
C          -1.0240918     0.4479977    -0.6527410
H          -1.7375831     0.8020652    -1.3901234
C          -1.2882769    -0.6655559     0.1440388
H           1.3062926     2.5721785    -0.9906584
H          -2.2299430    -1.1939708     0.0247323
C          -0.3592638    -1.1005477     1.0933805
H          -0.5734889    -1.9628531     1.7173702
C           0.8474826    -0.4154709     1.2471221
H           1.5824106    -0.7268067     1.9832895
C           1.1170803     0.6860754     0.4401415
O           2.2609600     1.4683718     0.5794754
C           6.1248831     0.0226155    -0.0608959
H           7.1394252    -0.3291637    -0.2233800
C           5.8945283     1.2211320     0.6197213
H           6.7304421     1.8081426     0.9905267
C           4.5942335     1.6732037     0.8332433
H           4.3950941     2.5995626     1.3630941
C           3.5170492     0.9198035     0.3593873
C           3.7296383    -0.2768351    -0.3276730
H           2.8890612    -0.8523252    -0.6989240
C           5.0396107    -0.7176948    -0.5301171
H           5.2060070    -1.6487793    -1.0652947
24
080_C12H10O2_11-12-19-17 (-150,) energy =    -613.7307216
C           0.1107748     1.1473365    -0.5443228
O           0.2938299     2.2257177    -1.3543745
C          -1.1001935     0.4532659    -0.5687402
H          -1.8792167     0.7909209    -1.2450269
C          -1.2829871    -0.6509565     0.2638360
H           1.1846900     2.5708323    -1.1645401
H          -2.2271043    -1.1876309     0.2369828
C          -0.2673118    -1.0661682     1.1287671
H          -0.4158563    -1.9220935     1.7801455
C           0.9436401    -0.3714214     1.1642204
H           1.7443272    -0.6711600     1.8333103
C           1.1290043     0.7218954     0.3232337
O           2.2696561     1.5200730     0.3334387
C           6.1318310    -0.0362839     0.0617230
H           7.1460067    -0.4184195    -0.0086665
C           5.8685717     1.1318237     0.7807413
H           6.6775151     1.6635624     1.2742975
C           4.5669553     1.6221324     0.8790118
H           4.3401124     2.5251740     1.4369651
C           3.5275777     0.9398297     0.2445979
C           3.7746653    -0.2269517    -0.4823630
H           2.9580174    -0.7458762    -0.9727843
C           5.0817826    -0.7094776    -0.5654476
H           5.2768651    -1.6165505    -1.1312285
24
080_C12H10O2_11-12-19-17 (-135,) energy =    -613.7303929
C           0.0446326     1.1487883    -0.5717785
O           0.1625896     2.2102476    -1.4170063
C          -1.1664183     0.4633489    -0.4753617
H          -1.9999744     0.7938123    -1.0871499
C          -1.2813400    -0.6249799     0.3909462
H           1.0740268     2.5410801    -1.3266627
H          -2.2266719    -1.1558383     0.4583618
C          -0.1943045    -1.0316659     1.1671336
H          -0.2871231    -1.8757815     1.8438428
C           1.0199707    -0.3455036     1.0816956
H           1.8740970    -0.6432911     1.6816150
C           1.1346549     0.7329364     0.2102705
O           2.2726339     1.5247511     0.0863834
C           6.1211241    -0.0823172     0.1748239
H           7.1313910    -0.4807424     0.1931130
C           5.7978676     1.0488500     0.9265079
H           6.5556859     1.5345021     1.5351527
C           4.4992865     1.5598444     0.9097937
H           4.2250830     2.4355864     1.4894663
C           3.5298799     0.9363484     0.1248185
C           3.8379627    -0.1944636    -0.6351908
H           3.0698901    -0.6666069    -1.2393822
C           5.1377432    -0.6998136    -0.6019400
H           5.3824326    -1.5781797    -1.1930109
24
080_C12H10O2_11-12-19-17 (-120,) energy =    -613.7298836
C          -0.0004922     1.1635758    -0.5886254
O           0.0718324     2.2115289    -1.4569614
C          -1.2146202     0.5142835    -0.3729634
H          -2.0904727     0.8614579    -0.9121557
C          -1.2806627    -0.5604175     0.5165818
H           0.9986444     2.5095419    -1.4641670
H          -2.2303193    -1.0628268     0.6768132
C          -0.1389772    -0.9881315     1.1947876
H          -0.1911440    -1.8220925     1.8883151
C           1.0826685    -0.3390762     0.9890190
H           1.9786603    -0.6563005     1.5124350
C           1.1454466     0.7266520     0.0980416
O           2.2841296     1.4822114    -0.1621591
C           6.1165707    -0.1013013     0.2753294
H           7.1231741    -0.4952128     0.3820380
C           5.7051348     0.9863441     1.0474238
H           6.3888868     1.4413311     1.7587673
C           4.4107925     1.4937405     0.9167928
H           4.0686866     2.3375409     1.5076008
C           3.5399000     0.9101564    -0.0015566
C           3.9372319    -0.1780877    -0.7812512
H           3.2394221    -0.6153867    -1.4885585
C           5.2298134    -0.6814241    -0.6358645
H           5.5460180    -1.5259925    -1.2419809
24
080_C12H10O2_11-12-19-17 (-105,) energy =    -613.7294280
C          -0.0247370     1.1856732    -0.5848428
O           0.0172833     2.2256304    -1.4657638
C          -1.2430376     0.5986972    -0.2524491
H          -2.1471957     0.9874034    -0.7105617
C          -1.2793999    -0.4680354     0.6494803
H           0.9521732     2.4776563    -1.5637654
H          -2.2335647    -0.9214798     0.9020973
C          -0.1020237    -0.9485482     1.2208970
H          -0.1292642    -1.7768899     1.9226034
C           1.1270712    -0.3634915     0.8955240
H           2.0496951    -0.7267147     1.3355611
C           1.1586829     0.6956547    -0.0039063
O           2.3002444     1.3841942    -0.3994350
C           6.1200366    -0.0962380     0.3732752
H           7.1236785    -0.4653565     0.5640036
C           5.5971748     0.9407883     1.1481489
H           6.1915384     1.3807344     1.9441600
C           4.3074382     1.4185650     0.9069039
H           3.8819351     2.2256587     1.4949285
C           3.5539113     0.8533919    -0.1204105
C           4.0629552    -0.1839368    -0.9028169
H           3.4533112    -0.6028839    -1.6974096
C           5.3510432    -0.6566285    -0.6499801
H           5.7555489    -1.4611616    -1.2579506
24
080_C12H10O2_11-12-19-17 (-90,) energy =    -613.7292764
C          -0.0355013     1.2042504    -0.5612925
O          -0.0001267     2.2492631    -1.4369421
C          -1.2561729     0.7083402    -0.1116277
H          -2.1680548     1.1725371    -0.4741872
C          -1.2858924    -0.3625848     0.7860501
H           0.9370527     2.4369677    -1.6194658
H          -2.2423549    -0.7435265     1.1323342
C          -0.0985836    -0.9384553     1.2346776
H          -0.1197465    -1.7706312     1.9320607
C           1.1341566    -0.4475702     0.7882539
H           2.0640958    -0.8886102     1.1306511
C           1.1584927     0.6175574    -0.1040129
O           2.3018649     1.2052509    -0.6333935
C           6.1256057    -0.0505186     0.4513327
H           7.1309913    -0.3616323     0.7203398
C           5.4712743     0.9267863     1.2048327
H           5.9660597     1.3784839     2.0601783
C           4.1806940     1.3330745     0.8620258
H           3.6570781     2.0956706     1.4300923
C           3.5554526     0.7514842    -0.2405904
C           4.1962930    -0.2252319    -1.0018955
H           3.6842390    -0.6530855    -1.8581194
C           5.4871957    -0.6238214    -0.6506127
H           5.9941592    -1.3813851    -1.2418302
24
080_C12H10O2_11-12-19-17 (-75,) energy =    -613.7295121
C          -0.0198192     1.2167159    -0.5443785
O           0.0309696     2.2615660    -1.4188583
C          -1.2375785     0.8228764     0.0049281
H          -2.1335086     1.3663588    -0.2785957
C          -1.2834903    -0.2471762     0.9023114
H           0.9639912     2.3755876    -1.6712410
H          -2.2367512    -0.5469600     1.3280927
C          -0.1163994    -0.9257648     1.2508628
H          -0.1512788    -1.7582786     1.9472648
C           1.1113386    -0.5397810     0.7014108
H           2.0257613    -1.0620384     0.9622771
C           1.1530522     0.5272882    -0.1884218
O           2.2946824     0.9978330    -0.8281579
C           6.1268908     0.0290640     0.4963209
H           7.1344875    -0.2085518     0.8252593
C           5.3409892     0.9176275     1.2348952
H           5.7369294     1.3750229     2.1374255
C           4.0481351     1.2314550     0.8152585
H           3.4269097     1.9258678     1.3724550
C           3.5484867     0.6409970    -0.3465856
C           4.3209793    -0.2464252    -1.0936179
H           3.9046002    -0.6807070    -1.9970708
C           5.6158730    -0.5488658    -0.6671709
H           6.2238318    -1.2377659    -1.2470452
24
080_C12H10O2_11-12-19-17 (-60,) energy =    -613.7300149
C           0.0208302     1.2189259    -0.5405896
O           0.1090533     2.2475569    -1.4299937
C          -1.1931986     0.9356852     0.0829217
H          -2.0547622     1.5516245    -0.1552172
C          -1.2768603    -0.1180494     0.9954576
H           1.0319260     2.2753389    -1.7389068
H          -2.2258538    -0.3305177     1.4794199
C          -0.1536814    -0.8933193     1.2861212
H          -0.2204703    -1.7143519     1.9936493
C           1.0667518    -0.6201855     0.6606005
H           1.9486702    -1.2164510     0.8711607
C           1.1479255     0.4342025    -0.2424980
O           2.2873094     0.7770240    -0.9636524
C           6.1338161     0.1239756     0.5074758
H           7.1448648    -0.0333480     0.8719257
C           5.2336177     0.8939414     1.2489497
H           5.5443974     1.3408100     2.1893776
C           3.9353324     1.1055008     0.7855481
H           3.2293293     1.7078193     1.3487230
C           3.5429180     0.5278146    -0.4240549
C           4.4300021    -0.2418707    -1.1745777
H           4.0943994    -0.6693307    -2.1141232
C           5.7298142    -0.4389467    -0.7042237
H           6.4247631    -1.0371186    -1.2871238
24
080_C12H10O2_11-12-19-17 (-45,) energy =    -613.7304908
C           0.0694860     1.2053421    -0.5315732
O           0.2080595     2.2113537    -1.4389783
C          -1.1394242     1.0331072     0.1432421
H          -1.9548785     1.7169137    -0.0705871
C          -1.2748212     0.0012852     1.0731263
H           1.1129097     2.1473190    -1.7933955
H          -2.2182530    -0.1243656     1.5967390
C          -0.2110178    -0.8657379     1.3313553
H          -0.3201898    -1.6709364     2.0516333
C           1.0002263    -0.7044610     0.6539701
H           1.8366881    -1.3718655     0.8360840
C           1.1359642     0.3314316    -0.2649869
O           2.2722744     0.5466221    -1.0394551
C           6.1366781     0.2350530     0.4994630
H           7.1516670     0.1626299     0.8792087
C           5.1470814     0.8655302     1.2574386
H           5.3915183     1.2904554     2.2272383
C           3.8411038     0.9667743     0.7774293
H           3.0689453     1.4603575     1.3586651
C           3.5318575     0.4182914    -0.4695919
C           4.5095465    -0.2138201    -1.2376753
H           4.2361656    -0.6250016    -2.2042985
C           5.8136759    -0.2999409    -0.7490591
H           6.5764785    -0.7919105    -1.3463315
24
080_C12H10O2_11-12-19-17 (-30,) energy =    -613.7307460
C           0.1255219     1.1635909    -0.5171617
O           0.3228426     2.1390920    -1.4454441
C          -1.0795171     1.1013657     0.1851598
H          -1.8423788     1.8445622    -0.0244623
C          -1.2768540     0.0989658     1.1347792
H           1.2039696     1.9850038    -1.8310016
H          -2.2162219     0.0591737     1.6789434
C          -0.2825039    -0.8500854     1.3861116
H          -0.4428618    -1.6330544     2.1210785
C           0.9218461    -0.7985357     0.6812369
H           1.7064315    -1.5290112     0.8531877
C           1.1223886     0.2106916    -0.2559714
O           2.2573311     0.3032493    -1.0572103
C           6.1359808     0.3435639     0.4828314
H           7.1542898     0.3574262     0.8601654
C           5.0873959     0.8223917     1.2700510
H           5.2878738     1.2161538     2.2628778
C           3.7746285     0.8104822     0.7953591
H           2.9602697     1.1871956     1.4047936
C           3.5203135     0.3040039    -0.4811650
C           4.5587886    -0.1783113    -1.2800399
H           4.3270584    -0.5643712    -2.2677490
C           5.8652949    -0.1532780    -0.7942428
H           6.6728977    -0.5292051    -1.4164981
24
080_C12H10O2_11-12-19-17 (-15,) energy =    -613.7306340
C           0.1969310     1.1284022    -0.5102677
O           0.4664501     2.0706646    -1.4536588
C          -1.0044098     1.1761637     0.2008498
H          -1.7047726     1.9769679    -0.0145025
C          -1.2778310     0.2051646     1.1635390
H           1.3171670     1.8256825    -1.8598568
H          -2.2136452     0.2507529     1.7134196
C          -0.3664351    -0.8231782     1.4199972
H          -0.5882146    -1.5819353     2.1642567
C           0.8324665    -0.8802819     0.7069537
H           1.5544002    -1.6729226     0.8789086
C           1.1117166     0.0989008    -0.2420205
O           2.2482675     0.0716198    -1.0468112
C           6.1271515     0.4663161     0.4470787
H           7.1452647     0.5672559     0.8113252
C           5.0496123     0.7930146     1.2704735
H           5.2254338     1.1543364     2.2802157
C           3.7350173     0.6670009     0.8149046
H           2.9005802     0.9260733     1.4567959
C           3.5101438     0.2054524    -0.4833248
C           4.5795233    -0.1270699    -1.3191548
H           4.3705122    -0.4867993    -2.3218771
C           5.8844088     0.0072850    -0.8503078
H           6.7142295    -0.2521687    -1.5021789
24
080_C12H10O2_11-12-19-17 (0,) energy =    -613.7302443
C           0.2872973     1.0811473    -0.5035349
O           0.6375957     1.9877160    -1.4548183
C          -0.9104314     1.2365949     0.1985377
H          -1.5411539     2.0898923    -0.0300531
C          -1.2709677     0.3005616     1.1672047
H           1.4536471     1.6583086    -1.8716357
H          -2.2036940     0.4292511     1.7091840
C          -0.4524713    -0.7995096     1.4385993
H          -0.7435397    -1.5305847     2.1866387
C           0.7428904    -0.9620062     0.7356380
H           1.3945824    -1.8115345     0.9167574
C           1.1111685    -0.0182005    -0.2182997
O           2.2524790    -0.1593948    -1.0050159
C           6.1104699     0.5927536     0.4075871
H           7.1231733     0.7820639     0.7510429
C           5.0302827     0.7668539     1.2720207
H           5.1978684     1.0950572     2.2944165
C           3.7218643     0.5250513     0.8445966
H           2.8860952     0.6645066     1.5205756
C           3.5061589     0.1089403    -0.4699496
C           4.5794633    -0.0731059    -1.3470584
H           4.3786130    -0.4064206    -2.3606598
C           5.8770526     0.1710197    -0.9044510
H           6.7090219     0.0291901    -1.5889939
24
080_C12H10O2_11-12-19-17 (15,) energy =    -613.7295317
C           0.3795213     1.0286298    -0.4861530
O           0.8158890     1.8968864    -1.4379147
C          -0.8132455     1.2863248     0.1936056
H          -1.3685962     2.1857793    -0.0528588
C          -1.2670844     0.3894080     1.1603593
H           1.5969073     1.4943340    -1.8563525
H          -2.1960845     0.5974181     1.6838225
C          -0.5477146    -0.7727466     1.4517496
H          -0.9117545    -1.4729110     2.1973689
C           0.6445028    -1.0351504     0.7735002
H           1.2222676    -1.9336044     0.9689613
C           1.1066303    -0.1315603    -0.1779719
O           2.2532626    -0.3808199    -0.9302469
C           6.0723480     0.7227334     0.3545799
H           7.0747577     1.0004052     0.6667687
C           5.0199688     0.7430382     1.2695234
H           5.1995624     1.0363969     2.3004376
C           3.7256248     0.3860803     0.8826088
H           2.9109333     0.4039682     1.5975206
C           3.4933744     0.0171297    -0.4431056
C           4.5394508    -0.0138321    -1.3698146
H           4.3290061    -0.3202933    -2.3900966
C           5.8249552     0.3400181    -0.9665975
H           6.6357102     0.3167360    -1.6897810
24
080_C12H10O2_11-12-19-17 (30,) energy =    -613.7285223
C           0.4828351     0.9728160    -0.4755788
O           1.0048052     1.8022679    -1.4197738
C          -0.7107590     1.3197475     0.1613145
H          -1.1938007     2.2524465    -0.1126341
C          -1.2601613     0.4669642     1.1185214
H           1.7654764     1.3485390    -1.8210323
H          -2.1901001     0.7453418     1.6064220
C          -0.6347342    -0.7392817     1.4436863
H          -1.0721879    -1.4049162     2.1814563
C           0.5606279    -1.0887595     0.8115388
H           1.0692202    -2.0223062     1.0331193
C           1.1179195    -0.2311152    -0.1312304
O           2.2740528    -0.5811810    -0.8275902
C           6.0372614     0.8354438     0.3065460
H           7.0251128     1.1922431     0.5827276
C           5.0403593     0.7056028     1.2744432
H           5.2509775     0.9579665     2.3102831
C           3.7670533     0.2454509     0.9326913
H           2.9932469     0.1438941     1.6857074
C           3.4948780    -0.0686492    -0.3998441
C           4.4860718     0.0467588    -1.3778714
H           4.2514405    -0.2293035    -2.4018515
C           5.7546790     0.5001730    -1.0197396
H           6.5232217     0.5922818    -1.7823710
24
080_C12H10O2_11-12-19-17 (45,) energy =    -613.7270692
C           0.5704773     0.9115483    -0.4540146
O           1.1701789     1.7107540    -1.3792331
C          -0.6305795     1.3305577     0.1232931
H          -1.0446150     2.2861446    -0.1831181
C          -1.2758612     0.5224793     1.0588806
H           1.9496720     1.2471444    -1.7267621
H          -2.2114389     0.8586509     1.4970167
C          -0.7354646    -0.7121554     1.4256586
H          -1.2438111    -1.3440380     2.1475366
C           0.4690684    -1.1319517     0.8579322
H           0.9148103    -2.0886354     1.1135221
C           1.1204244    -0.3222049    -0.0675307
O           2.2875274    -0.7692108    -0.6867815
C           5.9972280     0.9127246     0.2381721
H           6.9712246     1.3364214     0.4646923
C           5.0881734     0.6514456     1.2660568
H           5.3565326     0.8664076     2.2969048
C           3.8355769     0.1039596     0.9871334
H           3.1260389    -0.1029584     1.7815372
C           3.4896025    -0.1603705    -0.3396217
C           4.3949397     0.0807960    -1.3755563
H           4.1136155    -0.1732727    -2.3939272
C           5.6477372     0.6206456    -1.0813132
H           6.3500567     0.8117308    -1.8880475
24
080_C12H10O2_11-12-19-17 (60,) energy =    -613.7251639
C           0.6831325     0.8814972    -0.3568099
O           1.3820248     1.7070067    -1.1874192
C          -0.5585621     1.3284633     0.1059580
H          -0.8916866     2.3131344    -0.2074070
C          -1.3425815     0.5231012     0.9292816
H           2.2639456     1.3386965    -1.3592301
H          -2.3071067     0.8880428     1.2708859
C          -0.8943854    -0.7433745     1.3102303
H          -1.5018284    -1.3760821     1.9502508
C           0.3491343    -1.1917433     0.8656973
H           0.7295254    -2.1719671     1.1370297
C           1.1349183    -0.3912322     0.0389638
O           2.3286989    -0.9279646    -0.4422402
C           5.9808216     1.0138693     0.1121692
H           6.9414889     1.5015799     0.2489061
C           5.1878223     0.7030481     1.2209165
H           5.5357760     0.9426609     2.2220371
C           3.9551568     0.0729104     1.0570627
H           3.3335820    -0.1785964     1.9106958
C           3.5062861    -0.2249829    -0.2327017
C           4.2997638     0.0611652    -1.3475971
H           3.9473340    -0.2286473    -2.3337824
C           5.5365165     0.6868842    -1.1691542
H           6.1517567     0.9124055    -2.0357543
24
080_C12H10O2_11-12-19-17 (75,) energy =    -613.7227901
C           0.7256137     0.8721677    -0.3043373
O           1.4754780     1.7131255    -1.0759777
C          -0.5573555     1.3104135     0.0438098
H          -0.8606955     2.2939462    -0.3020025
C          -1.4140407     0.5072462     0.7914568
H           2.3958215     1.4059328    -1.1189413
H          -2.4074852     0.8694512     1.0403109
C          -0.9951504    -0.7547993     1.2176151
H          -1.6535789    -1.3896274     1.8028738
C           0.2860814    -1.1945963     0.8920601
H           0.6462671    -2.1700378     1.2049540
C           1.1456080    -0.3985615     0.1340347
O           2.3713738    -0.9705122    -0.2054457
C           6.0211876     1.0372024     0.0273747
H           6.9841793     1.5360980     0.0842540
C           5.3451038     0.6817729     1.1983413
H           5.7864331     0.8977823     2.1674572
C           4.1111688     0.0358473     1.1345892
H           3.5798772    -0.2563721     2.0350455
C           3.5400383    -0.2311613    -0.1129942
C           4.2220453     0.0928458    -1.2909837
H           3.7836009    -0.1809856    -2.2466773
C           5.4605114     0.7366338    -1.2142452
H           5.9877284     0.9926475    -2.1289710
24
080_C12H10O2_11-12-19-17 (90,) energy =    -613.7206934
C           0.7910375     0.9235038    -0.0393994
O           1.6443308     1.8773250    -0.5234755
C          -0.5455549     1.3174949     0.1070268
H          -0.7909128     2.3389071    -0.1681141
C          -1.5171407     0.4397805     0.5750909
H           2.5492804     1.5319566    -0.5773875
H          -2.5449715     0.7772102     0.6721566
C          -1.1629993    -0.8676607     0.9153605
H          -1.9070033    -1.5676104     1.2836832
C           0.1621529    -1.2709067     0.7855491
H           0.4753332    -2.2777646     1.0446871
C           1.1432839    -0.3951689     0.3119630
O           2.4097282    -0.9646499     0.2116822
C           6.0390363     1.0446540    -0.1963085
H           6.9979816     1.5437231    -0.3003917
C           5.4976855     0.8258382     1.0732626
H           6.0369050     1.1510746     1.9585959
C           4.2674759     0.1837507     1.2150572
H           3.8358945    -0.0035970     2.1932236
C           3.5718637    -0.2278275     0.0741197
C           4.1152628    -0.0318837    -1.2011842
H           3.5705924    -0.3923455    -2.0685770
C           5.3477320     0.6136007    -1.3300861
H           5.7685394     0.7704277    -2.3192758
24
080_C12H10O2_11-12-19-17 (105,) energy =    -613.7219657
C           0.8401000     1.0347452     0.5942840
O           1.7046520     2.0708764     0.8066586
C          -0.4979865     1.3776760     0.3637259
H          -0.7443712     2.4350876     0.3488521
C          -1.4730613     0.4029405     0.1761247
H           2.6241518     1.7588561     0.7879046
H          -2.5040248     0.7005629     0.0072123
C          -1.1217312    -0.9482076     0.2044116
H          -1.8712129    -1.7199875     0.0570651
C           0.2083192    -1.3024595     0.4154127
H           0.5196075    -2.3423463     0.4432752
C           1.1899473    -0.3298174     0.6161023
O           2.4646450    -0.8206142     0.8960752
C           5.9412573     0.9472851    -0.5890161
H           6.8531064     1.3968028    -0.9709723
C           5.5738247     1.1343641     0.7441714
H           6.1981766     1.7285991     1.4054712
C           4.3991296     0.5600236     1.2388289
H           4.1064594     0.6751175     2.2787350
C           3.6016298    -0.2152545     0.3889978
C           3.9604493    -0.4034669    -0.9482882
H           3.3213756    -1.0028766    -1.5890556
C           5.1330006     0.1777709    -1.4305721
H           5.4160052     0.0290690    -2.4690182
24
080_C12H10O2_11-12-19-17 (120,) energy =    -613.7246359
C           0.8142367     1.0616324     0.6967944
O           1.6335674     2.1004128     1.0276793
C          -0.4984820     1.3712501     0.3253228
H          -0.7831191     2.4187794     0.3035204
C          -1.4076492     0.3640358     0.0105326
H           2.5464448     1.7867591     1.1356971
H          -2.4237514     0.6291498    -0.2677273
C          -1.0164322    -0.9757648     0.0540971
H          -1.7197615    -1.7663939    -0.1891990
C           0.2939144    -1.2939887     0.4084297
H           0.6337289    -2.3241480     0.4579852
C           1.2059481    -0.2899820     0.7301261
O           2.4718249    -0.6870495     1.1602850
C           5.8840857     0.8788508    -0.6655248
H           6.7777133     1.2823720    -1.1324524
C           5.6553739     1.0753812     0.6965987
H           6.3697600     1.6322835     1.2964975
C           4.5028660     0.5626145     1.2987079
H           4.3154851     0.6854290     2.3621305
C           3.5902424    -0.1651281     0.5282619
C           3.8073587    -0.3619867    -0.8380303
H           3.0780068    -0.9167477    -1.4198375
C           4.9576595     0.1608334    -1.4276102
H           5.1314143     0.0055885    -2.4889440
24
080_C12H10O2_11-12-19-17 (135,) energy =    -613.7267264
C           0.7308789     1.1258225     0.7595367
O           1.4813736     2.1825314     1.1778098
C          -0.5618701     1.3686752     0.2881162
H          -0.9168412     2.3943829     0.2672105
C          -1.3675622     0.3096763    -0.1282327
H           2.3363015     1.8531405     1.4993004
H          -2.3720899     0.5143383    -0.4878289
C          -0.8960910    -1.0040318    -0.0777101
H          -1.5261580    -1.8293249    -0.3951000
C           0.3978599    -1.2521426     0.3834796
H           0.7956086    -2.2608036     0.4437842
C           1.2071734    -0.1960977     0.7924250
O           2.4702980    -0.4608499     1.3208341
C           5.8857712     0.7612996    -0.7509477
H           6.7811936     1.0795945    -1.2766490
C           5.7636341     0.9763465     0.6227152
H           6.5637365     1.4636851     1.1730807
C           4.6100564     0.5752820     1.2989039
H           4.5028788     0.7194349     2.3707087
C           3.5847778    -0.0591282     0.5928020
C           3.6930175    -0.2772959    -0.7821869
H           2.8803228    -0.7571531    -1.3176222
C           4.8479383     0.1361049    -1.4465746
H           4.9356033    -0.0338122    -2.5162962
24
080_C12H10O2_11-12-19-17 (150,) energy =    -613.7283497
C           0.6227664     1.1945716     0.7889186
O           1.2915747     2.2861541     1.2504700
C          -0.6669803     1.3456603     0.2746402
H          -1.1039053     2.3391110     0.2527845
C          -1.3666620     0.2303513    -0.1856917
H           2.1183194     1.9758027     1.6571273
H          -2.3701887     0.3586597    -0.5816738
C          -0.7953410    -1.0433566    -0.1310047
H          -1.3479089    -1.9101062    -0.4805331
C           0.4954273    -1.1986984     0.3792252
H           0.9667138    -2.1748441     0.4448743
C           1.2001737    -0.0848556     0.8238767
O           2.4631016    -0.2170237     1.3995682
C           5.9258521     0.6183618    -0.7847085
H           6.8364821     0.8377454    -1.3343071
C           5.8728344     0.8146234     0.5972124
H           6.7426031     1.1892790     1.1300302
C           4.7025702     0.5409528     1.3038123
H           4.6448528     0.6813825     2.3794191
C           3.5843764     0.0542974     0.6216670
C           3.6212082    -0.1450864    -0.7592429
H           2.7431762    -0.5110958    -1.2801061
C           4.7981063     0.1408984    -1.4541051
H           4.8283528    -0.0133998    -2.5293966
24
080_C12H10O2_11-12-19-17 (165,) energy =    -613.7294697
C           0.5105201     1.2690919     0.8013415
O           1.0881224     2.4076115     1.2705624
C          -0.7848881     1.3132405     0.2805889
H          -1.3046136     2.2659076     0.2580250
C          -1.3827190     0.1439622    -0.1888236
H           1.9363525     2.1534146     1.6742269
H          -2.3907424     0.1873767    -0.5917194
C          -0.7050342    -1.0770039    -0.1354025
H          -1.1799395    -1.9858347    -0.4920526
C           0.5896587    -1.1259157     0.3858840
H           1.1397351    -2.0599584     0.4509160
C           1.1931998     0.0432780     0.8375594
O           2.4555500     0.0363735     1.4285581
C           5.9678155     0.4749037    -0.7919750
H           6.8933687     0.5927405    -1.3477432
C           5.9548737     0.6252718     0.5973483
H           6.8719861     0.8625398     1.1297665
C           4.7680938     0.4791958     1.3119265
H           4.7398669     0.5899955     2.3918273
C           3.5868530     0.1702586     0.6311147
C           3.5818358     0.0196034    -0.7562308
H           2.6604561    -0.2092821    -1.2795343
C           4.7800061     0.1744970    -1.4582773
H           4.7764999     0.0581696    -2.5387835
24
080_C12H10O2_11-12-19-17 (180,) energy =    -613.7302616
C           0.4026003     1.3332408     0.8114130
O           0.8833265     2.5153259     1.2816433
C          -0.8991520     1.2613135     0.3094160
H          -1.5045098     2.1622298     0.3016895
C          -1.3919953     0.0459428    -0.1642899
H           1.7665873     2.3344278     1.6495594
H          -2.4050457    -0.0014663    -0.5538669
C          -0.6018689    -1.1066865    -0.1340831
H          -0.9946544    -2.0523820    -0.4948238
C           0.6977239    -1.0410331     0.3720021
H           1.3316990    -1.9214757     0.4180768
C           1.1954861     0.1758098     0.8281175
O           2.4551393     0.2956055     1.4114950
C           6.0028802     0.3193710    -0.7928002
H           6.9389300     0.3315967    -1.3432939
C           6.0025599     0.4252635     0.6009163
H           6.9400115     0.5214821     1.1420379
C           4.8039262     0.4100876     1.3096473
H           4.7842320     0.4886909     2.3923584