32
459_C13H17NO_3-16-26-27 (-165,) energy =    -635.6145697
C           1.1501737    -0.5760744    -0.0715242
H           1.7437981    -0.6551925     0.8504509
H           1.7720423    -0.8830902    -0.9124782
N           0.8287093     0.8492867    -0.2480891
C          -0.0442126     1.3785816     0.8134151
H          -0.3031177     2.4113694     0.5781794
H           0.5182837     1.3794413     1.7572199
C          -0.1016064    -1.4558705     0.0399257
H          -0.6271961    -1.4345853    -0.9223253
H           0.1972115    -2.4954334     0.2254464
C          -1.3283126     0.5447207     0.9678801
H          -1.9063580     0.9359532     1.8152196
H          -1.9455653     0.6798268     0.0690610
C          -1.0186247    -0.9462446     1.1608465
H          -0.5218084    -1.0904896     2.1322642
H          -1.9485141    -1.5268165     1.1957676
C           0.6875414     1.2966631    -1.5564127
C           0.6695977     5.4240045    -2.8298257
H           0.6708171     6.4494731    -3.1902739
C           1.2247311     5.1216936    -1.5911698
H           1.6840199     5.9158489    -1.0066717
C           1.2529589     3.8143502    -1.0760606
C           2.0126817     3.6141680     0.2205849
H           2.8278196     4.3422290     0.2835278
H           2.4368547     2.6116440     0.2965361
H           1.3795734     3.7701809     1.1030342
C           0.6473217     2.7854012    -1.8422992
C           0.1726403     3.0949455    -3.1318316
H          -0.1976345     2.2747898    -3.7368006
C           0.1544695     4.3944695    -3.6188423
H          -0.2420841     4.6004368    -4.6091499
O           0.7392854     0.5086521    -2.5000070
32
459_C13H17NO_3-16-26-27 (-150,) energy =    -635.6186654
C           1.1542289    -0.5807153    -0.0049030
H           1.6969351    -0.6402356     0.9495253
H           1.8155297    -0.9134982    -0.8045994
N           0.8456417     0.8367198    -0.2405304
C          -0.0647521     1.4108828     0.7589192
H          -0.2907703     2.4423177     0.4868590
H           0.4497688     1.4238528     1.7301067
C          -0.1132647    -1.4425992     0.0631057
H          -0.5863368    -1.4435307    -0.9269664
H           0.1603002    -2.4800968     0.2932113
C          -1.3669748     0.5981476     0.8683262
H          -1.9840422     1.0175389     1.6734934
H          -1.9333061     0.7165501    -0.0656351
C          -1.0858084    -0.8909788     1.1161177
H          -0.6464585    -1.0152113     2.1174078
H          -2.0232529    -1.4603797     1.1130801
C           0.8756674     1.2828934    -1.5503961
C           0.5369458     5.4106239    -2.7504419
H           0.4585536     6.4405387    -3.0888931
C           1.2042567     5.1177451    -1.5649329
H           1.6655331     5.9246874    -0.9997278
C           1.3316568     3.8047492    -1.0827441
C           2.1604439     3.5948395     0.1684023
H           2.9457213     4.3555179     0.2263036
H           2.6318352     2.6103571     0.1905679
H           1.5589368     3.6873734     1.0816757
C           0.7335406     2.7628553    -1.8307614
C           0.1292609     3.0639587    -3.0642715
H          -0.2460636     2.2371819    -3.6581739
C           0.0045072     4.3716989    -3.5158194
H          -0.4873938     4.5778822    -4.4623536
O           1.1030752     0.5140788    -2.4838170
32
459_C13H17NO_3-16-26-27 (-135,) energy =    -635.6209027
C           1.1239514    -0.6160642     0.0328076
H           1.6221225    -0.6634402     1.0121746
H           1.8188256    -0.9647946    -0.7307928
N           0.8294225     0.7944676    -0.2468892
C          -0.1228120     1.3996597     0.6889486
H          -0.3176006     2.4294588     0.3874151
H           0.3378604     1.4227753     1.6873905
C          -0.1532072    -1.4666837     0.0568221
H          -0.5754700    -1.4910448    -0.9561225
H           0.0995058    -2.4997865     0.3269486
C          -1.4363419     0.6007822     0.7442019
H          -2.0937996     1.0416394     1.5045602
H          -1.9485970     0.7011798    -0.2224322
C          -1.1771278    -0.8833490     1.0422353
H          -0.7908320    -0.9835763     2.0678153
H          -2.1158061    -1.4493993     1.0050024
C           1.0321815     1.2556584    -1.5316195
C           0.4508566     5.3692370    -2.6676825
H           0.3130801     6.4000675    -2.9834365
C           1.2221885     5.0852901    -1.5423650
H           1.6979651     5.8997441    -1.0006399
C           1.4244645     3.7714570    -1.0949734
C           2.3251542     3.5377224     0.0995909
H           2.9783985     4.4022137     0.2546505
H           2.9563259     2.6541442    -0.0309901
H           1.7564189     3.3919285     1.0262117
C           0.8106127     2.7234099    -1.8166830
C           0.0862231     3.0130815    -2.9825456
H          -0.3157108     2.1849488    -3.5582049
C          -0.1158240     4.3250582    -3.3993696
H          -0.6958184     4.5294723    -4.2950622
O           1.4309997     0.5190633    -2.4323040
32
459_C13H17NO_3-16-26-27 (-120,) energy =    -635.6217112
C           1.0910014    -0.6199588     0.0520913
H           1.5801846    -0.6435229     1.0376243
H           1.7964756    -0.9813503    -0.6958542
N           0.7878255     0.7774519    -0.2710365
C          -0.1807243     1.4106102     0.6239727
H          -0.3680349     2.4305846     0.2864369
H           0.2574005     1.4659686     1.6323119
C          -0.1841499    -1.4735389     0.0853482
H          -0.5920909    -1.5361911    -0.9321497
H           0.0689660    -2.4952488     0.3951898
C          -1.4915532     0.6085075     0.6784571
H          -2.1664036     1.0700498     1.4105459
H          -1.9836645     0.6734447    -0.3014307
C          -1.2294120    -0.8631995     1.0314596
H          -0.8625501    -0.9267445     2.0669403
H          -2.1638607    -1.4362201     0.9947932
C           1.1750613     1.2763296    -1.4933640
C           0.3894971     5.3604019    -2.6082118
H           0.2031546     6.3868977    -2.9127878
C           1.2356803     5.0985545    -1.5311739
H           1.7149097     5.9259987    -1.0126721
C           1.4995741     3.7900707    -1.1046411
C           2.4498838     3.5523299     0.0487009
H           3.0446376     4.4493677     0.2473655
H           3.1408084     2.7290342    -0.1599484
H           1.9188822     3.3008921     0.9755027
C           0.8804242     2.7283230    -1.7962582
C           0.0642336     2.9933146    -2.9032693
H          -0.3598606     2.1581519    -3.4534705
C          -0.1970535     4.3021717    -3.3024488
H          -0.8421140     4.4928747    -4.1557217
O           1.7605333     0.5888497    -2.3281303
32
459_C13H17NO_3-16-26-27 (-105,) energy =    -635.6219670
C           1.0945736    -0.5963596     0.0697261
H           1.5633458    -0.5966803     1.0660104
H           1.8245316    -0.9582922    -0.6544502
N           0.7740134     0.7870394    -0.2904906
C          -0.2289303     1.4286015     0.5579719
H          -0.4168257     2.4375407     0.1888935
H           0.1763885     1.5164248     1.5784821
C          -0.1693675    -1.4665523     0.0914912
H          -0.5510525    -1.5610961    -0.9338441
H           0.0903971    -2.4762354     0.4334159
C          -1.5271717     0.6071320     0.5940817
H          -2.2312725     1.0748946     1.2937703
H          -1.9905829     0.6374183    -0.4012951
C          -1.2487492    -0.8495878     0.9940615
H          -0.9063231    -0.8774851     2.0394298
H          -2.1714935    -1.4407745     0.9510130
C           1.3114600     1.3274859    -1.4330073
C           0.3838040     5.3705242    -2.5889159
H           0.1675028     6.3891687    -2.8998411
C           1.3161194     5.1362053    -1.5772665
H           1.8265053     5.9765798    -1.1120639
C           1.6206401     3.8383797    -1.1497233
C           2.6478162     3.6071655    -0.0642015
H           3.1855459     4.5314986     0.1679013
H           3.3831157     2.8540912    -0.3689282
H           2.1871852     3.2503140     0.8659425
C           0.9558956     2.7602681    -1.7672245
C           0.0393168     2.9953733    -2.7976263
H          -0.4377811     2.1488134    -3.2844192
C          -0.2567787     4.2959735    -3.2049392
H          -0.9747399     4.4660449    -4.0026024
O           2.0652028     0.6973160    -2.1719378
32
459_C13H17NO_3-16-26-27 (-90,) energy =    -635.6223054
C           1.0526963    -0.6033246     0.1296085
H           1.4698120    -0.5870507     1.1488790
H           1.8305009    -0.9496196    -0.5512152
N           0.7133036     0.7675394    -0.2590408
C          -0.3467091     1.3896059     0.5329150
H          -0.5369021     2.3928919     0.1503712
H           0.0032073     1.4906844     1.5730019
C          -0.1888146    -1.5041020     0.0916583
H          -0.5136530    -1.6152192    -0.9515018
H           0.0779911    -2.5045263     0.4546043
C          -1.6241665     0.5370626     0.5069909
H          -2.3744862     0.9906825     1.1666811
H          -2.0366178     0.5499963    -0.5109286
C          -1.3305922    -0.9101308     0.9307808
H          -1.0446858    -0.9239419     1.9931965
H          -2.2341308    -1.5252911     0.8415208
C           1.3809515     1.3585693    -1.3023413
C           0.3611248     5.3469437    -2.5655287
H           0.1251833     6.3525904    -2.9033756
C           1.3769332     5.1484974    -1.6288685
H           1.9292595     6.0038713    -1.2462968
C           1.7113420     3.8681262    -1.1736217
C           2.8274943     3.6678752    -0.1739404
H           3.3671367     4.6025556     0.0057970
H           3.5428755     2.9200641    -0.5327332
H           2.4477064     3.3125642     0.7930423
C           0.9854352     2.7708701    -1.6777774
C          -0.0226565     2.9688502    -2.6271745
H          -0.5572562     2.1092135    -3.0238352
C          -0.3403696     4.2531513    -3.0705117
H          -1.1255913     4.3949677    -3.8080661
O           2.2768236     0.7890898    -1.9227876
32
459_C13H17NO_3-16-26-27 (-75,) energy =    -635.6228312
C          -0.0140244    -0.0555175    -1.3900429
H           0.5401298    -0.9675580    -1.6638094
H           0.2205562     0.7062995    -2.1334690
N           0.4433769     0.3974034    -0.0764539
C           0.1466246    -0.5157088     1.0305292
H           0.5104588    -0.0452297     1.9440040
H           0.7098302    -1.4488688     0.8729678
C          -1.5204011    -0.3595167    -1.3736651
H          -2.0694439     0.5820311    -1.2362679
H          -1.8153087    -0.7660288    -2.3492965
C          -1.3543256    -0.8246446     1.1045451
H          -1.5336457    -1.5631501     1.8958800
H          -1.8908384     0.0903697     1.3890439
C          -1.8790688    -1.3371600    -0.2450175
H          -1.4297606    -2.3182564    -0.4600668
H          -2.9640888    -1.4915940    -0.2037718
C           1.0438969     1.6033276     0.1913938
C           2.2040081     4.2463523    -3.0028992
H           2.5119451     4.9313552    -3.7884746
C           1.1167980     4.5666338    -2.1877026
H           0.5863532     5.5030853    -2.3446236
C           0.6953180     3.7147990    -1.1607844
C          -0.4602393     4.0993647    -0.2659175
H          -0.8946247     5.0552150    -0.5738616
H          -0.1316745     4.1826673     0.7751828
H          -1.2576295     3.3456649    -0.2873537
C           1.3851725     2.4990192    -0.9790881
C           2.4802388     2.1831901    -1.7912685
H           3.0138126     1.2501731    -1.6263640
C           2.8935042     3.0518387    -2.8020202
H           3.7473153     2.7963481    -3.4236106
O           1.3105483     1.9680164     1.3354559
32
459_C13H17NO_3-16-26-27 (-60,) energy =    -635.6232653
C           0.0287391    -0.1184501    -1.3869027
H           0.5982846    -1.0254277    -1.6423394
H           0.2523946     0.6336002    -2.1429443
N           0.4769288     0.3621972    -0.0783115
C           0.1829258    -0.5443963     1.0361766
H           0.5370624    -0.0641260     1.9480358
H           0.7564467    -1.4711316     0.8821022
C          -1.4742578    -0.4432989    -1.3725079
H          -2.0357638     0.4933711    -1.2530132
H          -1.7584626    -0.8682728    -2.3436263
C          -1.3145395    -0.8698010     1.1126793
H          -1.4883318    -1.5986752     1.9142383
H          -1.8604317     0.0439110     1.3827992
C          -1.8274197    -1.4079984    -0.2312657
H          -1.3653213    -2.3867687    -0.4296507
H          -2.9107016    -1.5751155    -0.1932274
C           0.8982535     1.6422983     0.2026900
C           2.2265705     4.2244845    -2.9763846
H           2.5768098     4.8918147    -3.7594870
C           1.1796712     4.6210347    -2.1425646
H           0.7219211     5.5971871    -2.2853533
C           0.7046056     3.7976219    -1.1153081
C          -0.4084925     4.2735549    -0.2104224
H          -0.7868051     5.2464848    -0.5386846
H          -0.0581794     4.3592224     0.8223131
H          -1.2510244     3.5710546    -0.1987971
C           1.2978038     2.5275752    -0.9544773
C           2.3494927     2.1335739    -1.7914758
H           2.8081507     1.1593397    -1.6417054
C           2.8207954     2.9765513    -2.7977501
H           3.6428597     2.6595592    -3.4336193
O           1.0015441     2.0582291     1.3562564
32
459_C13H17NO_3-16-26-27 (-45,) energy =    -635.6228093
C           0.0284566    -0.1931823    -1.4365706
H           0.6088493    -1.0973121    -1.6742769
H           0.2413480     0.5461661    -2.2078238
N           0.4757895     0.3159659    -0.1353457
C           0.1828371    -0.5840032     0.9863080
H           0.5364716    -0.1006914     1.8965946
H           0.7595377    -1.5078438     0.8306282
C          -1.4722351    -0.5314545    -1.4185286
H          -2.0411624     0.4031132    -1.3180976
H          -1.7507804    -0.9756156    -2.3828272
C          -1.3126167    -0.9157913     1.0737511
H          -1.4808855    -1.6337751     1.8863575
H          -1.8601242    -0.0000352     1.3323669
C          -1.8237071    -1.4774021    -0.2612438
H          -1.3598091    -2.4586416    -0.4426741
H          -2.9067804    -1.6458459    -0.2215577
C           0.7122890     1.6474506     0.1482549
C           2.2173449     4.2155779    -2.9656141
H           2.6080388     4.8762314    -3.7351673
C           1.2066035     4.6629331    -2.1141504
H           0.8158582     5.6710441    -2.2312738
C           0.6797579     3.8513074    -1.1020374
C          -0.3952660     4.3986416    -0.1911043
H          -0.7712667     5.3532770    -0.5726235
H          -0.0083137     4.5498435     0.8207091
H          -1.2424216     3.7106143    -0.0965488
C           1.1854544     2.5385725    -0.9734432
C           2.1977985     2.0925973    -1.8353064
H           2.5930987     1.0884240    -1.7093332
C           2.7224782     2.9243392    -2.8230187
H           3.5162564     2.5657558    -3.4725584
O           0.6372803     2.0868221     1.2954861
32
459_C13H17NO_3-16-26-27 (-30,) energy =    -635.6209875
C           0.0454103    -0.2491077    -1.4584027
H           0.6488572    -1.1442345    -1.6692893
H           0.2383872     0.4719464    -2.2519378
N           0.4838033     0.3089664    -0.1701369
C           0.1981256    -0.5745929     0.9686238
H           0.5424731    -0.0730550     1.8726752
H           0.7918009    -1.4893441     0.8259001
C          -1.4476446    -0.6210535    -1.4353424
H          -2.0376659     0.3031823    -1.3645386
H          -1.7114243    -1.0977939    -2.3883473
C          -1.2903645    -0.9328113     1.0661134
H          -1.4455106    -1.6319196     1.8976836
H          -1.8534118    -0.0203305     1.2997294
C          -1.7862653    -1.5410836    -0.2538735
H          -1.3038804    -2.5183592    -0.4065783
H          -2.8662911    -1.7282180    -0.2136920
C           0.5470914     1.6712188     0.0901509
C           2.2037926     4.2445678    -2.9485049
H           2.6239708     4.9025705    -3.7047191
C           1.2348162     4.7260872    -2.0691126
H           0.9044826     5.7587492    -2.1527889
C           0.6684356     3.9200137    -1.0727912
C          -0.3678214     4.5209006    -0.1503775
H          -0.6992609     5.4909249    -0.5352134
H           0.0371115     4.6607798     0.8559613
H          -1.2434055     3.8746553    -0.0365357
C           1.0993712     2.5749892    -0.9820810
C           2.0675838     2.0958476    -1.8790202
H           2.4151007     1.0722572    -1.7796194
C           2.6296505     2.9209604    -2.8500040
H           3.3915638     2.5326816    -3.5202593
O           0.2955385     2.1166276     1.2098419
32
459_C13H17NO_3-16-26-27 (-15,) energy =    -635.6174892
C           0.0885001    -0.3053458    -1.4643452
H           0.7293880    -1.1816695    -1.6402558
H           0.2509690     0.3915395    -2.2859558
N           0.5045037     0.3226864    -0.1969342
C           0.2253261    -0.5248106     0.9727170
H           0.5414836     0.0199593     1.8622716
H           0.8533604    -1.4219071     0.8711454
C          -1.3890403    -0.7355698    -1.4366517
H          -2.0160712     0.1663605    -1.4089902
H          -1.6234073    -1.2598601    -2.3723617
C          -1.2491973    -0.9352393     1.0737458
H          -1.3850412    -1.6035637     1.9336499
H          -1.8481182    -0.0358925     1.2620609
C          -1.7048905    -1.6195580    -0.2226064
H          -1.1813152    -2.5817244    -0.3292098
H          -2.7768944    -1.8489893    -0.1861080
C           0.4253029     1.7010479     0.0076295
C           2.2549009     4.2778631    -2.9365744
H           2.7091791     4.9341370    -3.6743694
C           1.3365971     4.7892575    -2.0219395
H           1.0788895     5.8448805    -2.0608296
C           0.7234342     3.9875338    -1.0487045
C          -0.2659140     4.6380375    -0.1083688
H          -0.5001017     5.6502361    -0.4546737
H           0.1337654     4.6975754     0.9079338
H          -1.1964145     4.0691109    -0.0299622
C           1.0673196     2.6120891    -1.0069536
C           1.9836061     2.1057794    -1.9452206
H           2.2783012     1.0642627    -1.8822248
C           2.5864572     2.9247693    -2.8952945
H           3.3089673     2.5090504    -3.5921547
O           0.0086497     2.1514524     1.0747095
32
459_C13H17NO_3-16-26-27 (0,) energy =    -635.6130237
C           0.7535452    -0.0188435    -0.4271465
H           1.4008517    -0.3698126     0.3963307
H           1.4144230     0.3626833    -1.2053778
N          -0.1118796     1.0693564     0.0753666
C          -0.9227000     0.6174960     1.2169114
H          -1.5084022     1.4658111     1.5743733
H          -0.2754214     0.3024661     2.0523287
C          -0.0907866    -1.1917520    -0.9321923
H          -0.6839474    -0.8630803    -1.7965051
H           0.5726408    -1.9942851    -1.2783492
C          -1.8296530    -0.5379192     0.7783339
H          -2.4143966    -0.8817292     1.6406529
H          -2.5431641    -0.1612764     0.0334787
C          -1.0221713    -1.6982339     0.1788074
H          -0.4150751    -2.1633430     0.9692984
H          -1.6919873    -2.4780362    -0.2033955
C           0.4117496     2.3693094     0.1990154
C           1.7206251     4.3537601    -3.4117209
H           2.0664292     4.8548803    -4.3121107
C           1.8700959     4.9691119    -2.1714184
H           2.3375718     5.9492078    -2.1176788
C           1.4470001     4.3671222    -0.9772107
C           1.6821585     5.1234159     0.3105949
H           2.2396096     6.0431859     0.1036867
H           2.2407990     4.5287092     1.0387396
H           0.7406112     5.3841609     0.8014095
C           0.8258468     3.0913014    -1.0568278
C           0.6913335     2.4796912    -2.3167411
H           0.1674702     1.5343933    -2.3888619
C           1.1206777     3.0982694    -3.4861662
H           0.9811134     2.6053807    -4.4442697
O           0.3397840     2.9583486     1.2742813
32
459_C13H17NO_3-16-26-27 (15,) energy =    -635.6176442
C           0.7673767     0.0738091    -0.3910411
H           1.4323668    -0.2487823     0.4295557
H           1.4034611     0.4991484    -1.1668941
N          -0.1523804     1.1069053     0.1213924
C          -0.9680565     0.6128230     1.2397110
H          -1.6004706     1.4318768     1.5836000
H          -0.3224254     0.3291495     2.0878042
C          -0.0112972    -1.1395951    -0.9071578
H          -0.6134017    -0.8391141    -1.7755836
H           0.6963672    -1.9042940    -1.2511678
C          -1.8040933    -0.5884300     0.7833306
H          -2.3824581    -0.9669274     1.6353100
H          -2.5258437    -0.2483632     0.0287566
C          -0.9252290    -1.7001041     0.1922321
H          -0.3025357    -2.1323084     0.9893293
H          -1.5453837    -2.5154984    -0.1993809
C           0.2357166     2.4477626     0.1967103
C           1.7414196     4.2932085    -3.4048153
H           2.1268932     4.7638470    -4.3055387
C           1.9594004     4.8859363    -2.1627614
H           2.5208485     5.8154495    -2.1077100
C           1.4823310     4.3226504    -0.9708483
C           1.7787574     5.0402204     0.3264380
H           2.4925727     5.8517475     0.1499183
H           2.1918579     4.3679742     1.0838277
H           0.8689590     5.4601145     0.7643604
C           0.7512733     3.1099685    -1.0538613
C           0.5503491     2.5154757    -2.3117192
H          -0.0478678     1.6132313    -2.3752752
C           1.0255792     3.0997938    -3.4819265
H           0.8348464     2.6282128    -4.4419720
O          -0.0016154     3.1079231     1.2061613
32
459_C13H17NO_3-16-26-27 (30,) energy =    -635.6209451
C           0.7667843     0.1761166    -0.3684238
H           1.4523943    -0.1239886     0.4432607
H           1.3744192     0.6314554    -1.1497001
N          -0.1846555     1.1665662     0.1594385
C          -0.9994479     0.6438779     1.2635758
H          -1.6596142     1.4434940     1.5996203
H          -0.3511959     0.3799812     2.1160496
C           0.0316511    -1.0648584    -0.8849974
H          -0.5800650    -0.7851239    -1.7535824
H           0.7671638    -1.8021937    -1.2302670
C          -1.7878250    -0.5864468     0.7997947
H          -2.3562727    -0.9884313     1.6476486
H          -2.5178182    -0.2724071     0.0418014
C          -0.8632196    -1.6618062     0.2110088
H          -0.2276826    -2.0712503     1.0100428
H          -1.4495155    -2.4998792    -0.1848435
C           0.0721550     2.5320794     0.1626269
C           1.7535639     4.2856343    -3.4003752
H           2.1734605     4.7390284    -4.2945236
C           2.0259498     4.8356919    -2.1484305
H           2.6632710     5.7140454    -2.0791917
C           1.5026817     4.2926602    -0.9674981
C           1.8361339     4.9555631     0.3497065
H           2.6427685     5.6832475     0.2128273
H           2.1464663     4.2314707     1.1090247
H           0.9635330     5.4703547     0.7617239
C           0.6838643     3.1429604    -1.0715375
C           0.4232423     2.5898219    -2.3354773
H          -0.2342614     1.7289720    -2.4065316
C           0.9404758     3.1576087    -3.4971865
H           0.7093675     2.7227839    -4.4657076
O          -0.3113037     3.2466647     1.0873014
32
459_C13H17NO_3-16-26-27 (45,) energy =    -635.6226840
C           0.7834927     0.2407799    -0.3500547
H           1.4858281    -0.0422366     0.4528936
H           1.3667330     0.7192809    -1.1359423
N          -0.1886666     1.1971429     0.1919146
C          -1.0035899     0.6542705     1.2842645
H          -1.6833846     1.4405821     1.6118995
H          -0.3536641     0.4043879     2.1394152
C           0.0800979    -1.0199113    -0.8664110
H          -0.5405769    -0.7545676    -1.7330662
H           0.8341728    -1.7366715    -1.2148709
C          -1.7562622    -0.5970035     0.8160807
H          -2.3161836    -1.0170081     1.6608582
H          -2.4919082    -0.3029299     0.0555235
C          -0.7967654    -1.6430176     0.2297868
H          -0.1494532    -2.0303185     1.0305769
H          -1.3549823    -2.5004858    -0.1650723
C          -0.0721179     2.5709950     0.0946330
C           1.7765368     4.2730069    -3.4042262
H           2.2307857     4.7206722    -4.2843150
C           2.0807111     4.7701066    -2.1365056
H           2.7748117     5.6018256    -2.0409667
C           1.5124429     4.2320902    -0.9753194
C           1.8582219     4.8290686     0.3697790
H           2.6968900     5.5261678     0.2751716
H           2.1317415     4.0615493     1.1016732
H           1.0011895     5.3628221     0.7906464
C           0.6260489     3.1410342    -1.1149154
C           0.3274043     2.6425312    -2.3911663
H          -0.3758088     1.8195498    -2.4842953
C           0.8890958     3.2062778    -3.5354046
H           0.6352628     2.8150490    -4.5167773
O          -0.6000001     3.3220038     0.9135601
32
459_C13H17NO_3-16-26-27 (60,) energy =    -635.6231285
C           0.7964157     0.3128042    -0.3146215
H           1.5098190     0.0449027     0.4828835
H           1.3612156     0.8068175    -1.1046671
N          -0.1900001     1.2449703     0.2353901
C          -1.0053647     0.6897986     1.3195770
H          -1.6972563     1.4681860     1.6408553
H          -0.3524905     0.4478387     2.1741243
C           0.1160810    -0.9625101    -0.8294769
H          -0.5071636    -0.7085423    -1.6976205
H           0.8832958    -1.6661567    -1.1760401
C          -1.7351052    -0.5745386     0.8487568
H          -2.2896584    -1.0062022     1.6912281
H          -2.4737009    -0.2935328     0.0861250
C          -0.7526622    -1.6010695     0.2648407
H          -0.1012682    -1.9768894     1.0678523
H          -1.2930645    -2.4687136    -0.1325811
C          -0.2169274     2.6033702     0.0148031
C           1.7922702     4.2744478    -3.4072735
H           2.2831158     4.7191260    -4.2690029
C           2.1176421     4.7087142    -2.1211538
H           2.8629577     5.4901952    -1.9923943
C           1.5026117     4.1701037    -0.9852096
C           1.8560694     4.6891501     0.3895925
H           2.6810735     5.4059654     0.3337400
H           2.1575569     3.8795024     1.0650690
H           0.9936914     5.1777963     0.8527569
C           0.5502941     3.1453636    -1.1683565
C           0.2244319     2.7131164    -2.4602120
H          -0.5265117     1.9370452    -2.5856217
C           0.8361588     3.2753571    -3.5805272
H           0.5668766     2.9349686    -4.5766376
O          -0.8804955     3.3657560     0.7162319
32
459_C13H17NO_3-16-26-27 (75,) energy =    -635.6228323
C           0.8436328     0.3329182    -0.2966893
H           1.5630128     0.0987613     0.5052070
H           1.3905766     0.8440727    -1.0890153
N          -0.1782929     1.2308485     0.2410573
C          -0.9968124     0.6570652     1.3120677
H          -1.7205934     1.4156177     1.6103168
H          -0.3502354     0.4441846     2.1783915
C           0.2140894    -0.9706978    -0.8080049
H          -0.4054602    -0.7447115    -1.6864065
H           1.0096060    -1.6502194    -1.1385733
C          -1.6751918    -0.6356786     0.8406004
H          -2.2272462    -1.0808679     1.6776918
H          -2.4113236    -0.3863782     0.0646699
C          -0.6471811    -1.6303550     0.2799121
H           0.0051585    -1.9758501     1.0957566
H          -1.1499015    -2.5203026    -0.1176241
C          -0.3400970     2.5529242    -0.0934867
C           1.8248248     4.2533072    -3.4040500
H           2.3548257     4.7079958    -4.2368313
C           2.1681327     4.5924531    -2.0940322
H           2.9641208     5.3122692    -1.9174417
C           1.5047406     4.0356099    -0.9950477
C           1.8734048     4.4389402     0.4141033
H           2.6516807     5.2079760     0.4112808
H           2.2492356     3.5857790     0.9937742
H           0.9994875     4.8261750     0.9473107
C           0.4827703     3.0963178    -1.2408713
C           0.1336239     2.7641841    -2.5548174
H          -0.6710189     2.0533936    -2.7272734
C           0.7994445     3.3387673    -3.6381626
H           0.5161926     3.0749517    -4.6534683
O          -1.1304328     3.2895825     0.4944054
32
459_C13H17NO_3-16-26-27 (90,) energy =    -635.6223097
C           0.8862260     0.4112641    -0.2509839
H           1.6057003     0.2240506     0.5623338
H           1.4183886     0.9309827    -1.0483395
N          -0.1784848     1.2750969     0.2571370
C          -0.9967628     0.6876111     1.3205465
H          -1.7585247     1.4210847     1.5854390
H          -0.3589892     0.5194329     2.2025249
C           0.3186710    -0.9276391    -0.7457921
H          -0.2962498    -0.7426604    -1.6369297
H           1.1460755    -1.5798190    -1.0524103
C          -1.6117486    -0.6420262     0.8639913
H          -2.1597978    -1.0943447     1.6999441
H          -2.3433355    -0.4393333     0.0704165
C          -0.5313599    -1.6017140     0.3420274
H           0.1213522    -1.9002723     1.1760124
H          -0.9870878    -2.5216021    -0.0438273
C          -0.4648382     2.5387206    -0.1953709
C           1.8191727     4.2805747    -3.4033318
H           2.3807939     4.7447159    -4.2097364
C           2.1888590     4.5095604    -2.0767613
H           3.0360182     5.1561632    -1.8593279
C           1.4872556     3.9322442    -1.0125150
C           1.8855627     4.2081296     0.4193864
H           2.6849186     4.9535775     0.4691184
H           2.2443381     3.3011276     0.9231275
H           1.0315791     4.5789204     0.9966888
C           0.3938263     3.0953499    -1.3111754
C           0.0147324     2.8778626    -2.6399612
H          -0.8458421     2.2483252    -2.8526816
C           0.7255794     3.4642301    -3.6878072
H           0.4223610     3.2877520    -4.7161976
O          -1.3734484     3.2207596     0.2748238
32
459_C13H17NO_3-16-26-27 (105,) energy =    -635.6219670
C           0.8977619     0.5217524    -0.1685160